 &FCI NORB=  36,NELEC=36,MS2=0,
  ORBSYM=1,1,1,1,1,1,1,1,1,1,1,1,1,1,1,1,1,1,1,1,1,1,1,1,1,1,1,1,1,1,1,1,1,1,1,1,
  ISYM=1,
 &END
 2    1    1    1    1
 2    2    2    2    2
 2    3    3    3    3
 2    4    4    4    4
 2    5    5    5    5
 2    6    6    6    6
 2    7    7    7    7
 2    8    8    8    8
 2    9    9    9    9
 2   10   10   10   10
 2   11   11   11   11
 2   12   12   12   12
 2   13   13   13   13
 2   14   14   14   14
 2   15   15   15   15
 2   16   16   16   16
 2   17   17   17   17
 2   18   18   18   18
 2   19   19   19   19
 2   20   20   20   20
 2   21   21   21   21
 2   22   22   22   22
 2   23   23   23   23
 2   24   24   24   24
 2   25   25   25   25
 2   26   26   26   26
 2   27   27   27   27
 2   28   28   28   28
 2   29   29   29   29
 2   30   30   30   30
 2   31   31   31   31
 2   32   32   32   32
 2   33   33   33   33
 2   34   34   34   34
 2   35   35   35   35
 2   36   36   36   36
 -1    2    1  0  0
 -1    3    2  0  0
 -1    4    3  0  0
 -1    5    4  0  0
 -1    6    1  0  0
 -1    6    5  0  0
 -1    7    1  0  0
 -1    8    2  0  0
 -1    8    7  0  0
 -1    9    3  0  0
 -1    9    8  0  0
 -1   10    4  0  0
 -1   10    9  0  0
 -1   11    5  0  0
 -1   11   10  0  0
 -1   12    6  0  0
 -1   12    7  0  0
 -1   12   11  0  0
 -1   13    7  0  0
 -1   14    8  0  0
 -1   14   13  0  0
 -1   15    9  0  0
 -1   15   14  0  0
 -1   16   10  0  0
 -1   16   15  0  0
 -1   17   11  0  0
 -1   17   16  0  0
 -1   18   12  0  0
 -1   18   13  0  0
 -1   18   17  0  0
 -1   19   13  0  0
 -1   20   14  0  0
 -1   20   19  0  0
 -1   21   15  0  0
 -1   21   20  0  0
 -1   22   16  0  0
 -1   22   21  0  0
 -1   23   17  0  0
 -1   23   22  0  0
 -1   24   18  0  0
 -1   24   19  0  0
 -1   24   23  0  0
 -1   25   19  0  0
 -1   26   20  0  0
 -1   26   25  0  0
 -1   27   21  0  0
 -1   27   26  0  0
 -1   28   22  0  0
 -1   28   27  0  0
 -1   29   23  0  0
 -1   29   28  0  0
 -1   30   24  0  0
 -1   30   25  0  0
 -1   30   29  0  0
 -1   31    1  0  0
 -1   31   25  0  0
 -1   32    2  0  0
 -1   32   26  0  0
 -1   32   31  0  0
 -1   33    3  0  0
 -1   33   27  0  0
 -1   33   32  0  0
 -1   34    4  0  0
 -1   34   28  0  0
 -1   34   33  0  0
 -1   35    5  0  0
 -1   35   29  0  0
 -1   35   34  0  0
 -1   36    6  0  0
 -1   36   30  0  0
 -1   36   31  0  0
 -1   36   35  0  0
 0  0  0  0  0
