 &FCI NORB=  16,NELEC=16,MS2=0,
  ORBSYM=1,1,1,1,1,1,1,1,1,1,1,1,1,1,1,1
  ISYM=1,
 &END
 0.5000254916845202    1    1    1    1
 0.5028462208891784    1    1    2    2
 2.458880170378344e-05    1    1    3    2
 0.5011710110058366    1    1    3    3
 3.44047849487073e-06    1    1    4    2
 -7.390412791525951e-05    1    1    4    3
 0.4999792811494309    1    1    4    4
 -1.025410726011668e-15    1    1    5    1
 -4.397820993697947e-05    1    1    5    2
 3.795577106926107e-05    1    1    5    3
 1.098226132183272e-05    1    1    5    4
 0.4960498125298948    1    1    5    5
 0.0001346945231201724    1    1    6    1
 0.5027141623996931    1    1    6    6
 0.00171648436473865    1    1    7    1
 3.125679859566343e-05    1    1    7    6
 0.5014846510491562    1    1    7    7
 -0.003036488042789512    1    1    8    1
 -1.04353291994698e-15    1    1    8    5
 -9.370087073671663e-06    1    1    8    6
 7.357650112426573e-05    1    1    8    7
 0.4965414400037691    1    1    8    8
 1.777010157823651e-06    1    1    9    1
 1.081348423713336e-15    1    1    9    3
 1.076067979499908e-07    1    1    9    6
 -4.176710991465279e-06    1    1    9    7
 1.87774099246898e-06    1    1    9    8
 0.5004426572024233    1    1    9    9
 0.0006014375181308754    1    1   10    1
 -3.743565973039196e-05    1    1   10    6
 -0.001689021760258011    1    1   10    7
 0.002137033384059194    1    1   10    8
 4.63621345357303e-07    1    1   10    9
 0.4999319843385258    1    1   10   10
 3.72987757055098e-05    1    1   11    1
 -0.0001935254455029707    1    1   11    6
 0.001809534214763978    1    1   11    7
 0.00181589025094844    1    1   11    8
 2.456376389414488e-08    1    1   11    9
 0.0002827725249363838    1    1   11   10
 0.4988826847764639    1    1   11   11
 -0.0005732057271512051    1    1   12    2
 0.0005818342347032717    1    1   12    3
 0.0006611790863093227    1    1   12    4
 0.001303701162501583    1    1   12    5
 0.5028356749384209    1    1   12   12
 0.000581828009492071    1    1   13    2
 0.0007925099592048295    1    1   13    3
 -0.0007256114358796264    1    1   13    4
 0.0004338428976649154    1    1   13    5
 -1.078556794451968e-15    1    1   13    9
 2.415804697799242e-05    1    1   13   12
 0.5011660184696549    1    1   13   13
 -0.0006562314369312896    1    1   14    2
 0.0007308438029694537    1    1   14    3
 -0.0010461300101102    1    1   14    4
 0.002302145169846639    1    1   14    5
 -8.917971084981085e-06    1    1   14   12
 7.060212081308432e-05    1    1   14   13
 0.499955037449698    1    1   14   14
 0.001300134211542989    1    1   15    2
 0.0004309605098539264    1    1   15    3
 -0.002287425262790654    1    1   15    4
 -0.002600234630951881    1    1   15    5
 -1.043884150956541e-15    1    1   15    8
 -3.425438017662873e-05    1    1   15   12
 3.477925195655568e-05    1    1   15   13
 -3.393232922014737e-06    1    1   15   14
 0.4959969435678896    1    1   15   15
 -0.0003331508119537672    1    1   16    1
 0.0003133160576825215    1    1   16    6
 -0.002026835354537082    1    1   16    7
 -0.00264185635262698    1    1   16    8
 -1.210030959890456e-06    1    1   16    9
 0.0003120026679099656    1    1   16   10
 0.001197221978482826    1    1   16   11
 -1.039620751015671e-15    1    1   16   15
 0.4999769285454512    1    1   16   16
 0.5028462208891784    2    1    2    1
 2.458880170378541e-05    2    1    3    1
 3.440478494860157e-06    2    1    4    1
 -4.397820993699204e-05    2    1    5    1
 -0.01984317248308969    2    1    6    2
 0.3479882608792729    2    1    6    3
 -0.2938983916683093    2    1    6    4
 0.1033272896035561    2    1    6    5
 0.398076840200241    2    1    7    2
 -0.1042149068476057    2    1    7    3
 -0.1884091205320693    2    1    7    4
 -0.1978249333103878    2    1    7    5
 -0.2838281721172029    2    1    8    2
 -0.06360488706438258    2    1    8    3
 -0.118651428158682    2    1    8    4
 -0.06903694959351303    2    1    8    5
 -0.0818781497679866    2    1    9    2
 -0.1439039403171913    2    1    9    3
 -0.1219216893181939    2    1    9    4
 -0.06234293059108845    2    1    9    5
 -0.2020148105402384    2    1   10    2
 -0.07091396664601128    2    1   10    3
 0.01730859796378218    2    1   10    4
 0.1488541856652815    2    1   10    5
 0.00219536783505126    2    1   11    2
 -0.1455462532499186    2    1   11    3
 -0.2316413994667435    2    1   11    4
 -0.008538307157026612    2    1   11    5
 -0.0005732057271512173    2    1   12    1
 0.02162201504481167    2    1   12    6
 -0.4712298858021563    2    1   12    7
 -0.2126251366535443    2    1   12    8
 0.08242706137798345    2    1   12    9
 0.06713695211911608    2    1   12   10
 -0.09346055649047888    2    1   12   11
 0.0005818280094920988    2    1   13    1
 0.3380531508774809    2    1   13    6
 0.07359774862139541    2    1   13    7
 -0.07542960067033491    2    1   13    8
 0.1439823978623933    2    1   13    9
 -0.1749030574692681    2    1   13   10
 -0.07434344337368938    2    1   13   11
 -0.0006562314369313014    2    1   14    1
 0.3070171860119656    2    1   14    6
 -0.08417424329639442    2    1   14    7
 0.1271989623058155    2    1   14    8
 -0.1208760984567148    2    1   14    9
 0.2667899311591604    2    1   14   10
 -0.01313328343588588    2    1   14   11
 0.001300134211542994    2    1   15    1
 0.08190799783044712    2    1   15    6
 0.2101442299532726    2    1   15    7
 -0.09932299602025427    2    1   15    8
 0.06212492532216891    2    1   15    9
 -0.04857188721507241    2    1   15   10
 0.1120950589373117    2    1   15   11
 -0.000857846453599843    2    1   16    2
 0.0005723255482661943    2    1   16    3
 0.0006313351312085191    2    1   16    4
 0.001218817185688136    2    1   16    5
 0.5001850010367594    2    1   16   12
 -6.755084641688286e-05    2    1   16   13
 0.00110103774932328    2    1   16   14
 -0.0008276014068292095    2    1   16   15
 0.5028462208891784    2    2    1    1
 1.072062981010952    2    2    2    2
 -0.008821741346616915    2    2    3    2
 0.364154561123214    2    2    3    3
 -0.05789973687281503    2    2    4    2
 -0.049538993649971    2    2    4    3
 0.4078675903675151    2    2    4    4
 -0.1707380069313629    2    2    5    2
 0.1205401234406564    2    2    5    3
 0.05420540659377657    2    2    5    4
 0.1608610120361677    2    2    5    5
 -0.01984317248308972    2    2    6    1
 0.863817189320626    2    2    6    6
 0.3980768402002411    2    2    7    1
 1.319451500406292e-15    2    2    7    2
 -0.006119706647327454    2    2    7    6
 1.036891532502041    2    2    7    7
 -0.2838281721172029    2    2    8    1
 0.02424892198369434    2    2    8    6
 -0.01422213613881921    2    2    8    7
 0.3593372077783114    2    2    8    8
 -0.0818781497679866    2    2    9    1
 -0.001254843640696701    2    2    9    6
 0.02536766966529442    2    2    9    7
 0.002456923908619989    2    2    9    8
 0.1841569314720215    2    2    9    9
 -0.2020148105402384    2    2   10    1
 0.01972108461608091    2    2   10    6
 -0.3626294324084671    2    2   10    7
 0.1732498043486964    2    2   10    8
 -0.07905316708529853    2    2   10    9
 0.3521428874009831    2    2   10   10
 0.002195367835051264    2    2   11    1
 -0.01081541775893933    2    2   11    6
 0.24736088057833    2    2   11    7
 0.09817128609234578    2    2   11    8
 0.07929707211271249    2    2   11    9
 0.005110664629064015    2    2   11   10
 0.2032558028904    2    2   11   11
 -0.2943642678868743    2    2   12    2
 0.1334000151124091    2    2   12    3
 0.2394192182768956    2    2   12    4
 0.2306568586751763    2    2   12    5
 1.068432489646122    2    2   12   12
 0.1338941586201234    2    2   13    2
 0.2332173248257685    2    2   13    3
 -0.2140525562225127    2    2   13    4
 -0.01763964606417895    2    2   13    5
 -0.008338448856299781    2    2   13   12
 0.3627893286613841    2    2   13   13
 -0.2380807391572614    2    2   14    2
 0.2146013979623617    2    2   14    3
 -0.1335123034059237    2    2   14    4
 0.1729054494811063    2    2   14    5
 0.05685097934823708    2    2   14   12
 0.04923813772107481    2    2   14   13
 0.405301453098232    2    2   14   14
 0.2295640416146455    2    2   15    2
 -0.01782053298735896    2    2   15    3
 -0.1715265239472414    2    2   15    4
 -0.07578962840590217    2    2   15    5
 -0.1686669650654032    2    2   15   12
 0.1188152876125245    2    2   15   13
 -0.05394053897712725    2    2   15   14
 0.1585305840564155    2    2   15   15
 -0.0008578464535998259    2    2   16    1
 0.02200139463688661    2    2   16    6
 -0.4694602298783322    2    2   16    7
 -0.2108692904339533    2    2   16    8
 0.08166465720551198    2    2   16    9
 0.06757285296041328    2    2   16   10
 -0.09314753134893908    2    2   16   11
 0.49755222774644    2    2   16   16
 2.458880170376458e-05    3    1    2    1
 0.5011710110058366    3    1    3    1
 -7.390412791526007e-05    3    1    4    1
 3.795577106925497e-05    3    1    5    1
 0.3479882608792729    3    1    6    2
 0.1812870931650254    3    1    6    3
 0.009606553666219497    3    1    6    4
 0.05197534895923642    3    1    6    5
 -0.1042149068476057    3    1    7    2
 -0.06261061510062844    3    1    7    3
 0.1277751269441691    3    1    7    4
 -0.03377196685922233    3    1    7    5
 -0.06360488706438258    3    1    8    2
 -0.1549325327150161    3    1    8    3
 0.1436357463521903    3    1    8    4
 -0.05763276429690443    3    1    8    5
 1.073505185392513e-15    3    1    9    1
 -0.1439039403171913    3    1    9    2
 0.2417036610334237    3    1    9    3
 -0.2713785891037583    3    1    9    4
 -0.2902073681594944    3    1    9    5
 -1.01304108737195e-15    3    1    9    6
 -0.07091396664601128    3    1   10    2
 0.3193679418020164    3    1   10    3
 0.2845415997340086    3    1   10    4
 -0.1727499672318633    3    1   10    5
 -0.1455462532499186    3    1   11    2
 -0.1066019774799418    3    1   11    3
 0.1519195792223491    3    1   11    4
 0.02824786712829225    3    1   11    5
 -1.337689928471618e-15    3    1   11    9
 0.0005818342347032881    3    1   12    1
 0.3397760821447287    3    1   12    6
 0.07367161357272221    3    1   12    7
 -0.07523918254402388    3    1   12    8
 0.1451885211164638    3    1   12    9
 -0.1744537310981459    3    1   12   10
 -0.07412355656429119    3    1   12   11
 0.0007925099592048175    3    1   13    1
 0.1730619323714417    3    1   13    6
 0.09341110893105788    3    1   13    7
 -0.1436019925905808    3    1   13    8
 -0.2412774382872322    3    1   13    9
 -0.1105266223596017    3    1   13   10
 0.3225419112091898    3    1   13   11
 0.0007308438029694336    3    1   14    1
 -0.01443641707769206    3    1   14    6
 -6.565465814792398e-05    3    1   14    7
 -0.1635463791984784    3    1   14    8
 -0.2707467794155838    3    1   14    9
 -0.1945344591379539    3    1   14   10
 -0.2757741701546431    3    1   14   11
 0.000430960509853949    3    1   15    1
 0.04981278072622915    3    1   15    6
 -0.006590099752620326    3    1   15    7
 -0.07209354866025855    3    1   15    8
 0.2879383161671783    3    1   15    9
 0.00993701235353113    3    1   15   10
 -0.1705204266951635    3    1   15   11
 0.0005723255482661794    3    1   16    2
 0.0004118927538977907    3    1   16    3
 -0.0007105131289126272    3    1   16    4
 0.0004164097062632494    3    1   16    5
 -1.160694525281633e-15    3    1   16    9
 0.0001122318043934862    3    1   16   12
 0.499983189262697    3    1   16   13
 0.00107412906129937    3    1   16   14
 0.0002419785532018821    3    1   16   15
 2.458880170377153e-05    3    2    1    1
 -0.008821741346616894    3    2    2    2
 0.364154561123214    3    2    3    2
 0.07417539563823064    3    2    3    3
 -0.04953899364997099    3    2    4    2
 -0.0443817191312475    3    2    4    3
 -0.08176178041891714    3    2    4    4
 0.1205401234406564    3    2    5    2
 0.1500038170989995    3    2    5    3
 0.0475788497003783    3    2    5    4
 0.01645944886704432    3    2    5    5
 0.3479882608792728    3    2    6    1
 0.2467388086758833    3    2    6    6
 -0.1042149068476057    3    2    7    1
 -0.05603169931265092    3    2    7    6
 -0.1616800857748817    3    2    7    7
 -0.0636048870643826    3    2    8    1
 -0.4119188396374919    3    2    8    6
 -0.002749669921924353    3    2    8    7
 0.05566740707293006    3    2    8    8
 -0.1439039403171914    3    2    9    1
 1.003976549149923e-15    3    2    9    4
 -0.002452763303248594    3    2    9    6
 0.04633885495592095    3    2    9    7
 0.003988520245007459    3    2    9    8
 0.1119472717717007    3    2    9    9
 -0.07091396664601128    3    2   10    1
 -0.1769481994712397    3    2   10    6
 0.02275990662332715    3    2   10    7
 -0.004801776592655941    3    2   10    8
 -0.1403470227277025    3    2   10    9
 -0.1473979050213174    3    2   10   10
 -0.1455462532499186    3    2   11    1
 -0.1335165469515886    3    2   11    6
 -0.06975003661404783    3    2   11    7
 0.002650664352582037    3    2   11    8
 0.1399673455007571    3    2   11    9
 -0.1657685171256649    3    2   11   10
 -0.1053222691304677    3    2   11   11
 0.1334000151124091    3    2   12    2
 0.2338960562467649    3    2   12    3
 -0.215512883839701    3    2   12    4
 -0.01736138276605116    3    2   12    5
 -0.008018597288805007    3    2   12   12
 0.2332173248257685    3    2   13    2
 0.1100129327737987    3    2   13    3
 -0.1962330292647324    3    2   13    4
 0.01117561191537304    3    2   13    5
 0.3640877047449489    3    2   13   12
 0.07263677832384197    3    2   13   13
 0.2146013979623617    3    2   14    2
 0.1961538568243731    3    2   14    3
 0.2340234314895944    3    2   14    4
 0.000140496221001202    3    2   14    5
 0.0502688131739258    3    2   14   12
 0.04567537754244802    3    2   14   13
 -0.08108948611413828    3    2   14   14
 -0.01782053298735896    3    2   15    2
 0.01022816551250488    3    2   15    3
 -0.0005201269628151182    3    2   15    4
 -0.007375875992227073    3    2   15    5
 0.1192448039285718    3    2   15   12
 0.148043956838741    3    2   15   13
 -0.04650114821954322    3    2   15   14
 0.01641998233936295    3    2   15   15
 0.0005723255482661889    3    2   16    1
 0.3376328187413546    3    2   16    6
 0.07333521591217829    3    2   16    7
 -0.07502384945203373    3    2   16    8
 0.1435494154395593    3    2   16    9
 -0.1739117045754261    3    2   16   10
 -0.07406071535185357    3    2   16   11
 2.218360445129093e-05    3    2   16   16
 0.5011710110058366    3    3    1    1
 0.364154561123214    3    3    2    2
 0.07417539563823064    3    3    3    2
 0.9653829881248556    3    3    3    3
 -0.04438171913124751    3    3    4    2
 -0.03845807573957327    3    3    4    3
 0.4287531657738584    3    3    4    4
 0.1500038170989995    3    3    5    2
 -0.2157505697835123    3    3    5    3
 0.04358377314962712    3    3    5    4
 0.2438783798648306    3    3    5    5
 0.1812870931650254    3    3    6    1
 0.6061958039840004    3    3    6    6
 -0.06261061510062844    3    3    7    1
 -0.01446309795444773    3    3    7    6
 0.09276757182118657    3    3    7    7
 -0.1549325327150161    3    3    8    1
 -0.2056586297063913    3    3    8    6
 0.03612983153242845    3    3    8    7
 0.2192534797174751    3    3    8    8
 0.2417036610334238    3    3    9    1
 0.003752062901299149    3    3    9    6
 -0.0773950610257618    3    3    9    7
 -0.006602085228710144    3    3    9    8
 0.9441667651368243    3    3    9    9
 0.3193679418020164    3    3   10    1
 -0.09566722101987253    3    3   10    6
 0.01281525315795562    3    3   10    7
 0.1312987611303943    3    3   10    8
 0.2341538572079127    3    3   10    9
 0.5960390806215822    3    3   10   10
 -0.1066019774799418    3    3   11    1
 -0.08137041083133678    3    3   11    6
 0.1318163674058219    3    3   11    7
 0.1247957057985597    3    3   11    8
 -0.2343213350094162    3    3   11    9
 0.08725618805602293    3    3   11   10
 0.5416007285951282    3    3   11   11
 0.2338960562467648    3    3   12    2
 0.1113885143178413    3    3   12    3
 -0.1964586587388668    3    3   12    4
 0.01048486287733894    3    3   12    5
 0.3653955402639885    3    3   12   12
 0.1100129327737986    3    3   13    2
 -0.1603563447629518    3    3   13    3
 0.151671627588428    3    3   13    4
 0.2245740828202105    3    3   13    5
 0.07282939843797984    3    3   13   12
 0.9653973080494199    3    3   13   13
 0.1961538568243731    3    3   14    2
 -0.150544488850215    3    3   14    3
 -0.09416606881341727    3    3   14    4
 0.2256011387006399    3    3   14    5
 0.04461601323585516    3    3   14   12
 0.03832164917010018    3    3   14   13
 0.4275880559463492    3    3   14   14
 0.01022816551250488    3    3   15    2
 0.2230322169461577    3    3   15    3
 -0.2233503830955765    3    3   15    4
 -0.1663387432891321    3    3   15    5
 0.1488144428318633    3    3   15   12
 -0.2142474674778481    3    3   15   13
 -0.0435710119786126    3    3   15   14
 0.2394500008534816    3    3   15   15
 0.0004118927538977619    3    3   16    1
 0.1725609426410166    3    3   16    6
 0.09325539576387822    3    3   16    7
 -0.1435096414325348    3    3   16    8
 -0.2412844966902035    3    3   16    9
 -0.1109084329380264    3    3   16   10
 0.3212293564906439    3    3   16   11
 0.4988055591179634    3    3   16   16
 3.44047849486364e-06    4    1    2    1
 -7.390412791526787e-05    4    1    3    1
 0.4999792811494309    4    1    4    1
 1.09822613218514e-05    4    1    5    1
 -1.120481285995539e-15    4    1    5    5
 -0.2938983916683093    4    1    6    2
 0.009606553666219493    4    1    6    3
 -0.1694313393513884    4    1    6    4
 -0.008619559514204159    4    1    6    5
 -0.1884091205320693    4    1    7    2
 0.1277751269441691    4    1    7    3
 -0.1639063556255325    4    1    7    4
 0.2001490095285356    4    1    7    5
 -0.118651428158682    4    1    8    2
 0.1436357463521903    4    1    8    3
 -0.07331264728208159    4    1    8    4
 0.1267408865002499    4    1    8    5
 -0.1219216893181939    4    1    9    2
 -0.2713785891037583    4    1    9    3
 -0.1765226323340936    4    1    9    4
 -0.0730784365452949    4    1    9    5
 -1.193045355437944e-15    4    1    9    9
 0.01730859796378218    4    1   10    2
 0.2845415997340086    4    1   10    3
 0.1007247021868935    4    1   10    4
 0.1079888515442666    4    1   10    5
 -0.2316413994667435    4    1   11    2
 0.1519195792223491    4    1   11    3
 0.1523630435678275    4    1   11    4
 -0.3630275544182366    4    1   11    5
 0.0006611790863093362    4    1   12    1
 -0.3080039320231475    4    1   12    6
 0.08425038473008296    4    1   12    7
 -0.128621905083573    4    1   12    8
 0.1226879982059151    4    1   12    9
 -0.2686084384808374    4    1   12   10
 0.01357919491309161    4    1   12   11
 -0.0007256114358796172    4    1   13    1
 0.01539644681937688    4    1   13    6
 0.000813542153086015    4    1   13    7
 0.1629852164799993    4    1   13    8
 0.2722236862833696    4    1   13    9
 0.1947459443394897    4    1   13   10
 0.2764799791035532    4    1   13   11
 -0.00104613001011017    4    1   14    1
 0.1842216587979049    4    1   14    6
 -0.1741604789506735    4    1   14    7
 0.1126800349155547    4    1   14    8
 -0.1753930585634592    4    1   14    9
 -0.1176578800321232    4    1   14   10
 -0.0604422037809369    4    1   14   11
 -0.002287425262790643    4    1   15    1
 0.0105774956090183    4    1   15    6
 -0.2082800826804568    4    1   15    7
 0.1992804102702578    4    1   15    8
 0.07267451779344061    4    1   15    9
 -0.2978266298595686    4    1   15   10
 0.1625088405020731    4    1   15   11
 0.0006313351312085289    4    1   16    2
 -0.0007105131289126222    4    1   16    3
 0.0006184521661399198    4    1   16    4
 -0.002126089841412823    4    1   16    5
 0.001161144466790988    4    1   16   12
 0.0008966593997388472    4    1   16   13
 -0.4999587101985043    4    1   16   14
 0.001259372994433799    4    1   16   15
 3.440478494856687e-06    4    2    1    1
 -0.05789973687281503    4    2    2    2
 -0.04953899364997099    4    2    3    2
 -0.04438171913124751    4    2    3    3
 0.4078675903675151    4    2    4    2
 -0.08176178041891716    4    2    4    3
 0.1538041650639842    4    2    4    4
 0.05420540659377659    4    2    5    2
 0.0475788497003783    4    2    5    3
 0.08951502294923488    4    2    5    4
 -0.05155899827485927    4    2    5    5
 -0.2938983916683093    4    2    6    1
 0.2272005584392702    4    2    6    6
 -0.1884091205320693    4    2    7    1
 0.09673407583613056    4    2    7    6
 -0.3293639315283575    4    2    7    7
 -0.118651428158682    4    2    8    1
 0.3784975170653305    4    2    8    6
 0.06273091201726014    4    2    8    7
 0.06699303897401855    4    2    8    8
 -0.1219216893181939    4    2    9    1
 1.000971881144938e-15    4    2    9    3
 -0.001810411631749842    4    2    9    6
 0.03940136161069797    4    2    9    7
 0.003411748203314757    4    2    9    8
 0.3000095262524268    4    2    9    9
 0.01730859796378217    4    2   10    1
 0.1586969502184468    4    2   10    6
 0.04906582614493316    4    2   10    7
 0.02940518073885154    4    2   10    8
 -0.1194101169655654    4    2   10    9
 -0.1494757280532633    4    2   10   10
 -0.2316413994667435    4    2   11    1
 0.1266814256488928    4    2   11    6
 -0.02275705784813591    4    2   11    7
 0.03103751545911015    4    2   11    8
 0.1188750381123312    4    2   11    9
 -0.1735750634596253    4    2   11   10
 -0.1154098324883683    4    2   11   11
 0.2394192182768956    4    2   12    2
 -0.215512883839701    4    2   12    3
 0.1336880000528338    4    2   12    4
 -0.1737118698837008    4    2   12    5
 -0.05413707480069185    4    2   12   12
 -0.2140525562225127    4    2   13    2
 -0.1962330292647324    4    2   13    3
 -0.2354101728349388    4    2   13    4
 -0.0002909867716152381    4    2   13    5
 -0.04858863577691383    4    2   13   12
 -0.04459051686015885    4    2   13   13
 -0.1335123034059237    4    2   14    2
 0.2340234314895944    4    2   14    3
 -0.002732042464444968    4    2   14    4
 0.07850345351660115    4    2   14    5
 -0.4076903323486177    4    2   14   12
 0.08115042146439248    4    2   14   13
 0.150323185494279    4    2   14   14
 -0.1715265239472414    4    2   15    2
 -0.0005201269628151194    4    2   15    3
 -0.07876663421347244    4    2   15    4
 -0.04382513158656995    4    2   15    5
 0.05459082587352729    4    2   15   12
 0.04740092369714795    4    2   15   13
 -0.08869260876450268    4    2   15   14
 -0.05155930461849267    4    2   15   15
 0.0006313351312085189    4    2   16    1
 -0.3058141945803359    4    2   16    6
 0.0838311213877343    4    2   16    7
 -0.1279954124279281    4    2   16    8
 0.1215814670893408    4    2   16    9
 -0.2670512074032906    4    2   16   10
 0.01324713029630835    4    2   16   11
 4.292792577788583e-05    4    2   16   16
 -7.390412791528088e-05    4    3    1    1
 -0.04953899364997099    4    3    2    2
 -0.04438171913124751    4    3    3    2
 -0.03845807573957324    4    3    3    3
 -0.08176178041891717    4    3    4    2
 0.4287531657738585    4    3    4    3
 0.1329526604778637    4    3    4    4
 0.0475788497003783    4    3    5    2
 0.04358377314962712    4    3    5    3
 0.07850824820419468    4    3    5    4
 -0.04498516139770509    4    3    5    5
 0.009606553666219497    4    3    6    1
 -0.4112425548236009    4    3    6    6
 0.1277751269441691    4    3    7    1
 -0.02517387755433592    4    3    7    6
 -0.01777431392414888    4    3    7    7
 0.1436357463521903    4    3    8    1
 -0.0330963411985044    4    3    8    6
 -0.01143345783785018    4    3    8    7
 -0.1573905513220358    4    3    8    8
 -0.2713785891037583    4    3    9    1
 -0.00433340805875158    4    3    9    6
 0.08714223173197397    4    3    9    7
 0.007553041163785911    4    3    9    8
 0.08314597577024488    4    3    9    9
 0.2845415997340086    4    3   10    1
 -0.01301392292330648    4    3   10    6
 -0.02029753005795841    4    3   10    7
 -0.007601847363837413    4    3   10    8
 -0.2643201329648492    4    3   10    9
 0.2891989983495611    4    3   10   10
 0.1519195792223491    4    3   11    1
 1.308868936554432e-15    4    3   11    4
 -0.01810440170662999    4    3   11    6
 0.1446542078037904    4    3   11    7
 -0.01693823705299157    4    3   11    8
 0.2647248428589209    4    3   11    9
 0.3030388921139351    4    3   11   10
 0.2142448142830625    4    3   11   11
 -0.215512883839701    4    3   12    2
 -0.1964586587388668    4    3   12    3
 -0.2363112576816008    4    3   12    4
 -0.0004816324221771971    4    3   12    5
 -0.04961948091113335    4    3   12   12
 -0.1962330292647324    4    3   13    2
 0.151671627588428    4    3   13    3
 0.09374813137368751    4    3   13    4
 -0.2263778270903179    4    3   13    5
 -0.04352319793509324    4    3   13   12
 -0.03602879578159541    4    3   13   13
 0.2340234314895944    4    3   14    2
 -0.09416606881341724    4    3   14    3
 0.001151375604143701    4    3   14    4
 0.1569622748091869    4    3   14    5
 0.08106446357643497    4    3   14   12
 -0.4286988335129902    4    3   14   13
 0.1306571989320809    4    3   14   14
 -0.0005201269628151143    4    3   15    2
 -0.2233503830955766    4    3   15    3
 -0.1557428985925515    4    3   15    4
 0.06257881154853351    4    3   15    5
 0.04746129819659493    4    3   15   12
 0.04435212313930584    4    3   15   13
 -0.07887206395978466    4    3   15   14
 -0.04497935192996446    4    3   15   15
 -0.0007105131289126237    4    3   16    1
 0.01567212258071009    4    3   16    6
 0.000281657935439961    4    3   16    7
 0.1627729371178661    4    3   16    8
 0.2714861673328803    4    3   16    9
 0.1936607504096419    4    3   16   10
 0.2756844048657324    4    3   16   11
 -0.0001084642051675869    4    3   16   16
 0.4999792811494309    4    4    1    1
 0.4078675903675151    4    4    2    2
 -0.08176178041891717    4    4    3    2
 0.4287531657738585    4    4    3    3
 0.1538041650639842    4    4    4    2
 0.1329526604778637    4    4    4    3
 0.7509340825448688    4    4    4    4
 0.0895150229492349    4    4    5    2
 0.07850824820419469    4    4    5    3
 -0.145499743247368    4    4    5    4
 0.4124163803744247    4    4    5    5
 -0.1694313393513884    4    4    6    1
 0.4863632696907774    4    4    6    6
 -0.1639063556255325    4    4    7    1
 0.04448330968515888    4    4    7    6
 0.400283039839507    4    4    7    7
 -0.0733126472820816    4    4    8    1
 0.2240747912325639    4    4    8    6
 0.01203611328198897    4    4    8    7
 0.3036267407297003    4    4    8    8
 -0.1765226323340936    4    4    9    1
 -0.002749361388479686    4    4    9    6
 0.0570939491920846    4    4    9    7
 0.004940882689689299    4    4    9    8
 0.4999876687496584    4    4    9    9
 0.1007247021868935    4    4   10    1
 0.08062713739710434    4    4   10    6
 0.1979876236952018    4    4   10    7
 0.0764591019927966    4    4   10    8
 -0.1717457481518821    4    4   10    9
 0.6315958377021506    4    4   10   10
 0.1523630435678275    4    4   11    1
 1.281064292938699e-15    4    4   11    3
 0.07481209803081011    4    4   11    6
 -0.1153087551514921    4    4   11    7
 0.1214721243369513    4    4   11    8
 0.1718262702258576    4    4   11    9
 0.04703765586442449    4    4   11   10
 0.6781936689995952    4    4   11   11
 0.1336880000528338    4    4   12    2
 -0.2363112576816008    4    4   12    3
 0.002381499109349978    4    4   12    4
 -0.07980461364580636    4    4   12    5
 0.410108952276689    4    4   12   12
 -0.2354101728349388    4    4   13    2
 0.09374813137368751    4    4   13    3
 -0.001900472678193752    4    4   13    4
 -0.1575067240468437    4    4   13    5
 -0.08111147973893593    4    4   13   12
 0.4298263937033548    4    4   13   13
 -0.002732042464444988    4    4   14    2
 0.001151375604143674    4    4   14    3
 -0.001470021660120595    4    4   14    4
 -0.0002772173873116316    4    4   14    5
 1.115685326579449e-15    4    4   14    9
 -0.1535489312620818    4    4   14   12
 -0.1333149231677014    4    4   14   13
 0.7504483950285293    4    4   14   14
 -0.07876663421347245    4    4   15    2
 -0.1557428985925515    4    4   15    3
 -0.000788298373697851    4    4   15    4
 -0.2266141943476113    4    4   15    5
 0.08957036270293761    4    4   15   12
 0.07867625161914465    4    4   15   13
 0.1462186268266946    4    4   15   14
 0.4096450399307616    4    4   15   15
 0.0006184521661399354    4    4   16    1
 1.041262004847563e-15    4    4   16    4
 -0.1847165044339774    4    4   16    6
 0.1740551783225807    4    4   16    7
 -0.1120386602366744    4    4   16    8
 0.1765055625690435    4    4   16    9
 0.1166277539513788    4    4   16   10
 0.0611766614005128    4    4   16   11
 0.4999704931391799    4    4   16   16
 -1.0358046125217e-15    5    1    1    1
 -4.397820993699898e-05    5    1    2    1
 3.795577106926191e-05    5    1    3    1
 1.098226132184966e-05    5    1    4    1
 0.4960498125298947    5    1    5    1
 -1.108694541295496e-15    5    1    5    4
 0.1033272896035561    5    1    6    2
 0.05197534895923642    5    1    6    3
 -0.008619559514204157    5    1    6    4