 &FCI NORB=  16,NELEC=16,MS2=0,
  ORBSYM=1,1,1,1,1,1,1,1,1,1,1,1,1,1,1,1,
  ISYM=1,
 &END
 8    1    1    1    1
 8    2    2    2    2
 8    3    3    3    3
 8    4    4    4    4
 8    5    5    5    5
 8    6    6    6    6
 8    7    7    7    7
 8    8    8    8    8
 8    9    9    9    9
 8   10   10   10   10
 8   11   11   11   11
 8   12   12   12   12
 8   13   13   13   13
 8   14   14   14   14
 8   15   15   15   15
 8   16   16   16   16
 -1    2    1  0  0
 -1    3    2  0  0
 -1    4    1  0  0
 -1    4    3  0  0
 -1    5    1  0  0
 -1    6    2  0  0
 -1    6    5  0  0
 -1    7    3  0  0
 -1    7    6  0  0
 -1    8    4  0  0
 -1    8    5  0  0
 -1    8    7  0  0
 -1    9    5  0  0
 -1   10    6  0  0
 -1   10    9  0  0
 -1   11    7  0  0
 -1   11   10  0  0
 -1   12    8  0  0
 -1   12    9  0  0
 -1   12   11  0  0
 -1   13    1  0  0
 -1   13    9  0  0
 -1   14    2  0  0
 -1   14   10  0  0
 -1   14   13  0  0
 -1   15    3  0  0
 -1   15   11  0  0
 -1   15   14  0  0
 -1   16    4  0  0
 -1   16   12  0  0
 -1   16   13  0  0
 -1   16   15  0  0
 0  0  0  0  0
