 &FCI NORB=  16,NELEC=16,MS2=0,
  ORBSYM=1,1,1,1,1,1,1,1,1,1,1,1,1,1,1,1
  ISYM=1,
 &END
 0.2501468587926169    1    1    1    1
 0.2558796549110935    1    1    2    2
 -2.988487286575943e-09    1    1    3    2
 0.2501151136795876    1    1    3    3
 -3.688643828026305e-09    1    1    4    2
 -5.418795251884143e-09    1    1    4    3
 0.2501150147351998    1    1    4    4
 -4.406678775459871e-05    1    1    5    2
 1.598496457518754e-09    1    1    5    3
 2.430882982279711e-09    1    1    5    4
 0.2442537204200645    1    1    5    5
 3.316146642039874e-07    1    1    6    1
 0.2550398652785097    1    1    6    6
 -5.309002484169275e-07    1    1    7    1
 -1.069354510679387e-12    1    1    7    6
 0.2550387674417652    1    1    7    7
 0.004108855753791794    1    1    8    1
 -1.094767340575908e-08    1    1    8    6
 1.75296292441302e-08    1    1    8    7
 0.2550549756164409    1    1    8    8
 -0.004112981596017194    1    1    9    1
 -8.022850067510925e-09    1    1    9    6
 1.284437519493833e-08    1    1    9    7
 3.272917358889455e-05    1    1    9    8
 0.2450325963167694    1    1    9    9
 5.025268945527397e-07    1    1   10    1
 -8.346610712286784e-13    1    1   10    6
 1.336294064410824e-12    1    1   10    7
 1.263607731744758e-08    1    1   10    8
 1.621776747698589e-08    1    1   10    9
 0.2449173911716904    1    1   10   10
 -2.974718396816234e-07    1    1   11    1
 4.941302081488517e-13    1    1   11    6
 -7.90952404047406e-13    1    1   11    7
 -7.480038830740778e-09    1    1   11    8
 -9.598840194460756e-09    1    1   11    9
 -8.856172503087321e-13    1    1   11   10
 0.2449163926134907    1    1   11   11
 0.001690654458269505    1    1   12    2
 6.504538114254345e-07    1    1   12    3
 8.598440545164458e-07    1    1   12    4
 -0.003436870061611085    1    1   12    5
 0.2557900907591439    1    1   12   12
 1.026859961626755e-06    1    1   13    2
 -0.001797517315348865    1    1   13    3
 -0.004728792640870814    1    1   13    4
 -9.858958079716519e-07    1    1   13    5
 -3.631799057554811e-09    1    1   13   12
 0.2498411461156785    1    1   13   13
 3.001397862382181e-07    1    1   14    2
 -0.004729824777290296    1    1   14    3
 0.001797339700915795    1    1   14    4
 -2.783664366013308e-07    1    1   14    5
 -1.095081167610142e-09    1    1   14   12
 3.603708677821214e-09    1    1   14   13
 0.249841141966085    1    1   14   14
 0.003280234861705953    1    1   15    2
 6.06402102645191e-07    1    1   15    3
 8.170814865842987e-07    1    1   15    4
 -0.001614759323581581    1    1   15    5
 -3.539749908977322e-07    1    1   15   12
 -3.337554051312042e-09    1    1   15   13
 -9.088270078013302e-10    1    1   15   14
 0.2441641174131471    1    1   15   15
 0.001703691430453164    1    1   16    1
 3.332256536437587e-07    1    1   16    6
 -5.334879673463207e-07    1    1   16    7
 -0.004165522265959671    1    1   16    8
 -0.004054141563098288    1    1   16    9
 -4.997436155339968e-07    1    1   16   10
 2.958289822945654e-07    1    1   16   11
 0.2498531527687168    1    1   16   16
 0.2558796549110935    2    1    2    1
 -2.988487288375074e-09    2    1    3    1
 -3.688643823094645e-09    2    1    4    1
 -4.406678775460353e-05    2    1    5    1
 1.821912731946956e-05    2    1    6    2
 -0.2013448085079348    2    1    6    3
 0.0186808064324645    2    1    6    4
 -3.525572613057793e-06    2    1    6    5
 -2.935547715758614e-05    2    1    7    2
 0.01867842448510746    2    1    7    3
 0.2013199965023741    2    1    7    4
 5.978631847254573e-06    2    1    7    5
 0.2820769707419138    2    1    8    2
 2.408078563360982e-05    2    1    8    3
 3.199365785258557e-05    2    1    8    4
 -0.1055982825106063    2    1    8    5
 -0.07814831443772746    2    1    9    2
 1.137380785807889e-06    2    1    9    3
 1.64968733709913e-06    2    1    9    4
 -0.09872229320995866    2    1    9    5
 1.565956943197973e-05    2    1   10    2
 -0.005047718808447209    2    1   10    3
 -0.05007716587436951    2    1   10    4
 6.786896132987325e-06    2    1   10    5
 -9.386324960890344e-06    2    1   11    2
 0.05005498039564526    2    1   11    3
 -0.005045765167827142    2    1   11    4
 -4.227332361379699e-06    2    1   11    5
 0.00169065445826952    2    1   12    1
 -1.875663266366847e-05    2    1   12    6
 3.022124791120598e-05    2    1   12    7
 0.2864833169426629    2    1   12    8
 0.07514373270718655    2    1   12    9
 1.596657738635258e-05    2    1   12   10
 -9.570865688336938e-06    2    1   12   11
 1.026859961617104e-06    2    1   13    1
 0.05262523640542847    2    1   13    6
 -0.1896204232087011    2    1   13    7
 3.852530183459816e-05    2    1   13    8
 -3.434655354581768e-06    2    1   13    9
 -0.04993708168649195    2    1   13   10
 0.0134248632273687    2    1   13   11
 3.00139786244272e-07    2    1   14    1
 0.1896430250224123    2    1   14    6
 0.05261903827001992    2    1   14    7
 1.115792079417439e-05    2    1   14    8
 -9.02150003905163e-07    2    1   14    9
 0.01343102704036726    2    1   14   10
 0.04991527002582508    2    1   14   11
 0.003280234861705951    2    1   15    1
 -3.909985670485736e-06    2    1   15    6
 6.596970727062588e-06    2    1   15    7
 0.09968015499747974    2    1   15    8
 -0.09972553872651975    2    1   15    9
 -6.23577946070744e-06    2    1   15   10
 3.902846100669892e-06    2    1   15   11
 5.276376117516411e-05    2    1   16    2
 -6.432252740431164e-07    2    1   16    3
 -8.501010962073122e-07    2    1   16    4
 0.003358402694014009    2    1   16    5
 -0.2499036452070971    2    1   16   12
 6.067146530821889e-07    2    1   16   13
 1.831459412315089e-07    2    1   16   14
 2.961314176760622e-05    2    1   16   15
 0.2558796549110935    2    2    1    1
 0.5869541719827921    2    2    2    2
 7.488354064327304e-06    2    2    3    2
 0.1706565147208543    2    2    3    3
 1.000218986461314e-05    2    2    4    2
 -2.778821450046224e-06    2    2    4    3
 0.1706273181230448    2    2    4    4
 -0.0852901738239405    2    2    5    2
 -8.204197340445828e-06    2    2    5    3
 -1.07414674718495e-05    2    2    5    4
 0.08348373052612082    2    2    5    5
 1.821912731947499e-05    2    2    6    1
 0.312196673647806    2    2    6    6
 -2.935547715757875e-05    2    2    7    1
 1.135070298998711e-07    2    2    7    6
 0.3121223304212615    2    2    7    7
 0.2820769707419138    2    2    8    1
 -1.38144102435927e-06    2    2    8    6
 2.216752197395919e-06    2    2    8    7
 0.7073381981663818    2    2    8    8
 -0.07814831443772746    2    2    9    1
 -1.016986515147181e-05    2    2    9    6
 1.643486481983036e-05    2    2    9    7
 -9.091932819502358e-05    2    2    9    8
 0.1257947906719571    2    2    9    9
 1.565956943197844e-05    2    2   10    1
 -4.342996572184145e-11    2    2   10    6
 6.95526050690962e-11    2    2   10    7
 1.578402875253407e-05    2    2   10    8
 -3.284461240805352e-09    2    2   10    9
 0.0212614839894468    2    2   10   10
 -9.386324960889975e-06    2    2   11    1
 2.571623081004889e-11    2    2   11    6
 -4.118311206253142e-11    2    2   11    7
 -9.24641663305961e-06    2    2   11    8
 -1.003633105047315e-09    2    2   11    9
 1.170182429205196e-07    2    2   11   10
 0.02124284983386247    2    2   11   11
 0.2895811546710403    2    2   12    2
 4.212098586155991e-05    2    2   12    3
 5.584096279091934e-05    2    2   12    4
 -0.1488671447113227    2    2   12    5
 0.5831843323186661    2    2   12   12
 6.560550937911279e-05    2    2   13    2
 -0.05166015763845273    2    2   13    3
 -0.1358922481892016    2    2   13    4
 -2.136641079308027e-05    2    2   13    5
 1.154119654559338e-05    2    2   13   12
 0.1627585977522309    2    2   13   13
 1.907194678778845e-05    2    2   14    2
 -0.1359379999934903    2    2   14    3
 0.05165207412883085    2    2   14    4
 -6.137024441364991e-06    2    2   14    5
 3.300446339037897e-06    2    2   14   12
 6.66406578352371e-06    2    2   14   13
 0.1627809069041162    2    2   14   14
 0.1420652537701587    2    2   15    2
 1.344446015554767e-05    2    2   15    3
 1.794801525600711e-05    2    2   15    4
 -0.001091229727851301    2    2   15    5
 0.08138388810619067    2    2   15   12
 1.223124364585641e-05    2    2   15   13
 3.635964424525748e-06    2    2   15   14
 0.07955442767217116    2    2   15   15
 5.276376117516163e-05    2    2   16    1
 1.870935088561777e-05    2    2   16    6
 -3.013710571126489e-05    2    2   16    7
 -0.2780214634308332    2    2   16    8
 -0.07394169947458519    2    2   16    9
 -1.560520560849237e-05    2    2   16   10
 9.356632242031905e-06    2    2   16   11
 0.2441640183581883    2    2   16   16
 -2.988487284905627e-09    3    1    2    1
 0.2501151136795876    3    1    3    1
 -5.418795247743886e-09    3    1    4    1
 1.598496467238415e-09    3    1    5    1
 -0.2013448085079348    3    1    6    2
 0.101322561126039    3    1    6    3
 0.110220484364846    3    1    6    4
 -0.05521027892947313    3    1    6    5
 0.01867842448510746    3    1    7    2
 -0.1102315143068865    3    1    7    3
 0.1013422367465465    3    1    7    4
 0.005124648227915594    3    1    7    5
 2.408078563360836e-05    3    1    8    2
 -0.101462807553465    3    1    8    3
 -1.153809403233051e-06    3    1    8    4
 -2.347745820569407e-06    3    1    8    5
 1.137380785807833e-06    3    1    9    2
 -0.1028505802552655    3    1    9    3
 -8.720278926227847e-07    3    1    9    4
 -2.344782924768213e-05    3    1    9    5
 -0.005047718808447208    3    1   10    2
 -0.1030730864440219    3    1   10    3
 0.0932612764654531    3    1   10    4
 -0.01926672451184591    3    1   10    5
 0.05005498039564527    3    1   11    2
 0.09324282887287502    3    1   11    3
 0.1030636489102102    3    1   11    4
 0.1911548164432433    3    1   11    5
 6.504538114223482e-07    3    1   12    1
 0.2005718635934339    3    1   12    6
 -0.01860686568473027    3    1   12    7
 2.483366527918311e-05    3    1   12    8
 -1.681438160153562e-06    3    1   12    9
 -0.005305907336609311    3    1   12   10
 0.05261613190810516    3    1   12   11
 -0.001797517315348859    3    1   13    1
 -0.1353144546132619    3    1   13    6
 -0.05408567961713558    3    1   13    7
 -0.03475127426784291    3    1   13    8
 0.03768603535521408    3    1   13    9
 0.05194570430886668    3    1   13   10
 0.1330183981621788    3    1   13   11
 -0.004729824777290289    3    1   14    1
 -0.05407113047745614    3    1   14    6
 0.1353309133231221    3    1   14    7
 -0.09143318739633063    3    1   14    8
 0.09915469696098712    3    1   14    9
 -0.1330345704088431    3    1   14   10
 0.05193188111525512    3    1   14   11
 6.064021026481955e-07    3    1   15    1
 -0.05252291154619302    3    1   15    6
 0.004875297152747519    3    1   15    7
 1.729899623389382e-06    3    1   15    8
 -2.274001663334943e-05    3    1   15    9
 0.01934083550089174    3    1   15   10
 -0.1918916007360003    3    1   15   11
 -6.432252740472196e-07    3    1   16    2
 0.006763717868369172    3    1   16    3
 -1.003515671702464e-07    3    1   16    4
 6.134246137667188e-07    3    1   16    5
 -3.912222222306361e-07    3    1   16   12
 -0.08875853116654692    3    1   16   13
 -0.2335372370525163    3    1   16   14
 3.562333560654794e-07    3    1   16   15
 -2.98848728834028e-09    3    2    1    1
 7.488354064327304e-06    3    2    2    2
 0.1706565147208543    3    2    3    2
 -0.06689276071662141    3    2    3    3
 -2.778821450054097e-06    3    2    4    2
 -0.06045144021444558    3    2    4    3
 0.06687778295953588    3    2    4    4
 -8.204197340445168e-06    3    2    5    2
 0.08342634864413534    3    2    5    3
 2.489536806748567e-06    3    2    5    4
 7.463219573948933e-06    3    2    5    5
 -0.2013448085079348    3    2    6    1
 -0.1400715472438555    3    2    6    6
 0.01867842448510745    3    2    7    1
 0.1839188146521978    3    2    7    6
 0.1400531068389746    3    2    7    7
 2.408078563361089e-05    3    2    8    1
 0.00494247324048199    3    2    8    6
 -0.0004586466909207369    3    2    8    7
 3.655992237722943e-05    3    2    8    8
 1.13738078581173e-06    3    2    9    1
 0.1627025934573899    3    2    9    6
 -0.01509527333341973    3    2    9    7
 5.265910284598519e-07    3    2    9    8
 1.650798176439085e-05    3    2    9    9
 -0.005047718808447207    3    2   10    1
 1.243761007817374e-08    3    2   10    6
 -1.45127118591365e-09    3    2   10    7
 0.004162831509627353    3    2   10    8
 -0.0001264783967322484    3    2   10    9
 -0.03483294621772662    3    2   10   10
 0.05005498039564527    3    2   11    1
 -9.29051006627347e-09    3    2   11    6
 3.810488774902065e-09    3    2   11    7
 -0.04127595008198063    3    2   11    8
 0.00125383187885305    3    2   11    9
 -0.04725178306714073    3    2   11   10
 0.03479832392076661    3    2   11   11
 4.212098586155827e-05    3    2   12    2
 -0.1488441807140611    3    2   12    3
 4.386196485650722e-06    3    2   12    4
 -1.387582050017896e-05    3    2   12    5
 8.415390740642494e-06    3    2   12   12
 -0.05166015763845273    3    2   13    2
 0.1289768331369886    3    2   13    3
 -0.06597060358146627    3    2   13    4
 -0.0007959801466796716    3    2   13    5
 0.05918632983452353    3    2   13   12
 0.008985456465675879    3    2   13   13
 -0.1359379999934903    3    2   14    2
 0.06594579763471516    3    2   14    3
 0.1289859422621189    3    2   14    4
 -0.002094252062499643    3    2   14    5
 0.1557351570724929    3    2   14   12
 -0.08181942819701915    3    2   14   13
 -0.009001159657280893    3    2   14   14
 1.344446015554829e-05    3    2   15    2
 0.002205397061426008    3    2   15    3
 1.034301746810525e-07    3    2   15    4
 1.314107161428855e-05    3    2   15    5
 7.809133198492044e-06    3    2   15   12
 -0.02892423801151279    3    2   15   13
 -0.07609712681290222    3    2   15   14
 7.313984311407574e-06    3    2   15   15
 -6.432252740394325e-07    3    2   16    1
 -0.1973083230822846    3    2   16    6
 0.01830404404636768    3    2   16    7
 -2.425165510279109e-05    3    2   16    8
 1.811046549573485e-06    3    2   16    9
 0.005150964310157805    3    2   16   10
 -0.05107901098920246    3    2   16   11
 -2.213813557473757e-09    3    2   16   16
 0.2501151136795876    3    3    1    1
 0.1706565147208543    3    3    2    2
 -0.06689276071662141    3    3    3    2
 0.500343018345643    3    3    3    3
 -0.06045144021444557    3    3    4    2
 -2.344318449150847e-05    3    3    4    3
 0.166786335106012    3    3    4    4
 0.08342634864413534    3    3    5    2
 0.05674528531821036    3    3    5    3
 0.05127976959424104    3    3    5    4
 0.1627648130380233    3    3    5    5
 0.1013225611260391    3    3    6    1
 0.510602816339003    3    3    6    6
 -0.1102315143068865    3    3    7    1
 -0.03148375427874275    3    3    7    6
 0.1741145676520039    3    3    7    7
 -0.101462807553465    3    3    8    1
 -0.002486590996705057    3    3    8    6
 0.00270575395246721    3    3    8    7
 0.08109535395670862    3    3    8    8
 -0.1028505802552655    3    3    9    1
 -0.08186978583411597    3    3    9    6
 0.0890743661205743    3    3    9    7
 0.0001369464930178317    3    3    9    8
 0.08559795837736105    3    3    9    9
 -0.1030730864440219    3    3   10    1
 -2.089860938360175e-09    3    3   10    6
 2.510894238750607e-10    3    3   10    7
 0.08499394951007062    3    3   10    8
 -0.00258175772527803    3    3   10    9
 0.165432474195285    3    3   10   10
 0.09324282887287499    3    3   11    1
 4.915035078851252e-13    3    3   11    6
 1.829120816680808e-09    3    3   11    7
 -0.07688330370434526    3    3   11    8
 0.0023351184435147    3    3   11    9
 -0.0323545180517843    3    3   11   10
 0.4832004838078087    3    3   11   11
 -0.1488441807140611    3    3   12    2
 0.1099810422934057    3    3   12    3
 0.0994084993199183    3    3   12    4
 -0.00230932041524907    3    3   12    5
 0.1705125434060832    3    3   12   12
 0.1289768331369886    3    3   13    2
 -0.004804079044933077    3    3   13    3
 -0.004214356358603351    3    3   13    4
 0.1279355811081775    3    3   13    5
 -0.07502198864466199    3    3   13   12
 0.2085650758972704    3    3   13   13
 0.06594579763471516    3    3   14    2
 -0.01264329659781377    3    3   14    3
 0.001603014379953331    3    3   14    4
 0.06541344318317835    3    3   14    5
 -0.03836714831786661    3    3   14   12
 0.110591880576094    3    3   14   13
 0.4575878487194333    3    3   14   14
 0.00220539706142601    3    3   15    2
 -0.1041598414682156    3    3   15    3
 -0.09414702987200933    3    3   15    4
 -0.139822992734971    3    3   15    5
 -0.08330511384175486    3    3   15   12
 -0.07328870920180661    3    3   15   13
 -0.03748190439931672    3    3   15   14
 0.1627838507666816    3    3   15   15
 0.006763717868369163    3    3   16    1
 0.09929096361498647    3    3   16    6
 -0.1080215793157055    3    3   16    7
 0.09710723451267456    3    3   16    8
 -0.1067588220527029    3    3   16    9
 0.1051818214625886    3    3   16   10
 -0.09515069062067658    3    3   16   11
 0.2498412319922432    3    3   16   16
 -3.688643823129439e-09    4    1    2    1
 -5.418795254717574e-09    4    1    3    1
 0.2501150147351998    4    1    4    1
 2.430882985614619e-09    4    1    5    1
 0.0186808064324645    4    1    6    2
 0.110220484364846    4    1    6    3
 -0.1013302819508662    4    1    6    4
 0.005122266284206934    4    1    6    5
 0.2013199965023741    4    1    7    2
 0.1013422367465465    4    1    7    3
 0.1102438615878682    4    1    7    4
 0.05523288923933048    4    1    7    5
 3.199365785258361e-05    4    1    8    2
 -1.153809403231163e-06    4    1    8    3
 -0.101474242126688    4    1    8    4
 -2.983733493934733e-06    4    1    8    5
 1.649687337103154e-06    4    1    9    2
 -8.720278926257421e-07    4    1    9    3
 -0.102860005100905    4    1    9    4
 -3.143118834939347e-05    4    1    9    5
 -0.05007716587436951    4    1   10    2
 0.0932612764654531    4    1   10    3
 0.1030863232221648    4    1   10    4
 -0.1911346846259238    4    1   10    5
 -0.005045765167827143    4    1   11    2
 0.1030636489102102    4    1   11    3
 -0.09325067196593297    4    1   11    4
 -0.01926868202534545    4    1   11    5
 8.59844054516306e-07    4    1   12    1
 -0.01860909466262735    4    1   12    6
 -0.2005487443043829    4    1   12    7
 3.298487649631745e-05    4    1   12    8
 -2.388016352028692e-06    4    1   12    9
 -0.05263851256499939    4    1   12   10
 -0.005303932830641921    4    1   12   11
 -0.004728792640870822    4    1   13    1
 0.05407861688642972    4    1   13    6
 -0.1353424733501104    4    1   13    7
 -0.0914426789124835    4    1   13    8
 0.09916608414878778    4    1   13    9
 0.1330469618721507    4    1   13   10
 -0.05193896419462714    4    1   13   11
 0.001797339700915795    4    1   14    1
 -0.1353167262616596    4    1   14    6
 -0.05408093379956379    4    1   14    7
 0.03475281518109546    4    1   14    8
 -0.03768807271100772    4    1   14    9
 0.05194133537723973    4    1   14   10
 0.1330216549645133    4    1   14   11
 8.17081486582954e-07    4    1   15    1
 0.004872931770007029    4    1   15    6
 0.05254532971574375    4    1   15    7
 2.170962590798861e-06    4    1   15    8
 -3.04729541702136e-05    4    1   15    9
 0.1918699179623521    4    1   15   10
 0.01934295282007701    4    1   15   11
 -8.501010962081876e-07    4    1   16    2
 -1.003515671611896e-07    4    1   16    3
 0.006762690609061769    4    1   16    4
 8.263523538887778e-07    4    1   16    5
 -5.078788103308779e-07    4    1   16   12
 -0.2335372509968157    4    1   16   13
 0.08875853356566427    4    1   16   14
 4.892249111981995e-07    4    1   16   15
 -3.688643819659992e-09    4    2    1    1
 1.00021898646162e-05    4    2    2    2
 -2.778821450043281e-06    4    2    3    2
 -0.06045144021444557    4    2    3    3
 0.1706273181230448    4    2    4    2
 0.06687778295953588    4    2    4    3
 0.06043125281682162    4    2    4    4
 -1.07414674718517e-05    4    2    5    2
 2.489536806749658e-06    4    2    5    3
 0.0834518126319404    4    2    5    4
 1.015081694777993e-05    4    2    5    5
 0.0186808064324645    4    2    6    1
 -0.1838951220324697    4    2    6    6
 0.2013199965023741    4    2    7    1
 -0.1400443615231788    4    2    7    6
 0.1838706266142014    4    2    7    7
 3.199365785258463e-05    4    2    8    1
 -0.0004585635692203534    4    2    8    6
 -0.004943391133261196    4    2    8    7
 4.845258533537372e-05    4    2    8    8
 1.649687337098714e-06    4    2    9    1
 -0.01509557517005733    4    2    9    6
 -0.1627000399336888    4    2    9    7
 6.962227923661038e-07    4    2    9    8
 2.194130995346645e-05    4    2    9    9
 -0.05007716587436951    4    2   10    1
 8.413110979476412e-10    4    2   10    6
 -1.537130727016995e-08    4    2   10    7
 0.04129839746646395    4    2   10    8
 -0.001254759668784814    4    2   10    9
 -0.04729532348304723    4    2   10   10
 -0.005045765167827145    4    2   11    1
 8.77830336607993e-10    4    2   11    6
 6.998725084380006e-09    4    2   11    7
 0.004160797701156136    4    2   11    8
 -0.0001263917314842682    4    2   11    9
 0.03482554144386704    4    2   11   10
 0.04724943156687066    4    2   11   11
 5.584096279091715e-05    4    2   12    2
 4.386196485646818e-06    4    2   12    3
 -0.1487982131363816    4    2   12    4
 -1.851549432807433e-05    4    2   12    5
 1.121022865990018e-05    4    2   12   12
 -0.1358922481892016    4    2   13    2
 -0.06597060358146628    4    2   13    3
 -0.1290185119235346    4    2   13    4
 -0.002093584759645713    4    2   13    5
 0.1557093893586874    4    2   13   12
 0.08179513085768267    4    2   13   13
 0.05165207412883085    4    2   14    2
 0.1289859422621189    4    2   14    3
 -0.06595798626966649    4    2   14    4
 0.0007956557043120917    4    2   14    5
 -0.05918177445011935    4    2   14   12
 0.008994508902612171    4    2   14   13
 -0.08181626747572304    4    2   14   14
 1.794801525600657e-05    4    2   15    2
 1.034301746802644e-07    4    2   15    3
 0.002205352818828554    4    2   15    4
 1.753551206861884e-05    4    2   15    5
 1.021917574074802e-05    4    2   15   12
 -0.0761225567200243    4    2   15   13
 0.02892861438414064    4    2   15   14
 9.960780191968942e-06    4    2   15   15
 -8.501010962074456e-07    4    2   16    1
 0.0183063007133307    4    2   16    6
 0.1972848463053626    4    2   16    7
 -3.220728158874775e-05    4    2   16    8
 2.552659050299297e-06    4    2   16    9
 0.0511014391147107    4    2   16   10
 0.005148992040140661    4    2   16   11
 -2.872200069933465e-09    4    2   16   16
 -5.418795247743886e-09    4    3    1    1
 -2.77882145004675e-06    4    3    2    2
 -0.06045144021444558    4    3    3    2
 -2.3443184491509e-05    4    3    3    3
 0.06687778295953588    4    3    4    2
 0.166786335106012    4    3    4    3
 2.840890016640941e-05    4    3    4    4
 2.489536806752423e-06    4    3    5    2
 0.05127976959424104    4    3    5    3
 -0.05672898727036817    4    3    5    4
 -2.19505630675994e-06    4    3    5    5
 0.110220484364846    4    3    6    1
 -0.03150213777333655    4    3    6    6
 0.1013422367465465    4    3    7    1
 -0.168252515342091    4    3    7    6
 0.03150020631565172    4    3    7    7
 -1.153809403230837e-06    4    3    8    1
 -0.002705616291993361    4    3    8    6
 -0.002488447917653404    4    3    8    7
 1.700730986148669e-06    4    3    8    8
 -8.720278926214897e-07    4    3    9    1
 -0.08906690364800814    4    3    9    6
 -0.08190138237949232    4    3    9    7
 -2.010572538891332e-09    4    3    9    8
 1.633755248404409e-06    4    3    9    9
 0.09326127646545308    4    3   10    1
 -1.038101610906549e-08    4    3   10    6
 -3.247469151833792e-10    4    3   10    7
 -0.07691211948699107    4    3   10    8
 0.002336803038864399    4    3   10    9
 0.0323696908861091    4    3   10   10
 0.1030636489102102    4    3   11    1
 -6.387554185962881e-11    4    3   11    6
 1.013052863066644e-08    4    3   11    7
 -0.08498754452151296    4    3   11    8
 0.002581650791662731    4    3   11    9
 -0.1588918940710388    4    3   11   10
 -0.03237108713723807    4    3   11   11
 4.386196485645566e-06    4    3   12    2
 0.09940849931991831    4    3   12    3
 -0.1100083598645684    4    3   12    4
 -9.966937288434721e-08    4    3   12    5
 -2.469039057743214e-06    4    3   12   12
 -0.06597060358146628    4    3   13    2
 -0.00421435635860335    4    3   13    3
 -0.001602513409030827    4    3   13    4
 -0.06543909316405851    4    3   13    5
 0.03835364523306867    4    3   13   12
 0.1106365031890742    4    3   13   13
 0.1289859422621189    4    3   14    2
 0.001603014379953332    4    3   14    3
 -0.004213791493122897    4    3   14    4
 0.1279456266025175    4    3   14    5
 -0.07501631724918352    4    3   14   12
 0.1244846682471597    4    3   14   13
 -0.1106315158637178    4    3   14   14
 1.03430174678272e-07    4    3   15    2
 -0.09414702987200933    4    3   15    3
 0.1041865962610265    4    3   15    4
 4.252491146366171e-06    4    3   15    5
 -2.49141605388875e-06    4    3   15   12
 0.03746635099030356    4    3   15   13
 -0.07328332497233991    4    3   15   14
 -2.510124217004457e-06    4    3   15   15
 -1.003515671617228e-07    4    3   16    1
 0.1080108253522443    4    3   16    6
 0.09931098730175042    4    3   16    7
 9.569421477174259e-07    4    3   16    8
 -1.075492754900082e-06    4    3   16    9
 -0.09516883316514607    4    3   16   10
 -0.1051721370247956    4    3   16   11
 -1.358625556769271e-09    4    3   16   16
 0.2501150147351998    4    4    1    1
 0.1706273181230448    4    4    2    2
 0.06687778295953588    4    4    3    2
 0.166786335106012    4    4    3    3
 0.06043125281682164    4    4    4    2
 2.840890016640746e-05    4    4    4    3
 0.5003940138943637    4    4    4    4
 0.08345181263194039    4    4    5    2
 -0.05672898727036819    4    4    5    3
 -0.05125821837276994    4    4    5    4
 0.1627428437228832    4    4    5    5
 -0.1013302819508662    4    4    6    1
 0.1740779456609813    4    4    6    6
 0.1102438615878682    4    4    7    1
 0.0314837623816548    4    4    7    6
 0.5106189646547076    4    4    7    7
 -0.101474242126688    4    4    8    1
 0.002487991178809268    4    4    8    6
 -0.002707995839431441    4    4    8    7
 0.08111203137863868    4    4    8    8
 -0.102860005100905    4    4    9    1
 0.0818898042190635    4    4    9    6
 -0.08910640759205482    4    4    9    7
 0.0001370110646889035    4    4    9    8
 0.0856153840205905    4    4    9    9
 0.1030863232221648    4    4   10    1
 2.089882110180736e-09    4    4   10    6
 -2.511420128984811e-10    4    4   10    7
 -0.08502471018564044    4    4   10    8
 0.002583879852576114    4    4   10    9
 0.4832193289054329    4    4   10   10
 -0.09325067196593297    4    4   11    1
 -5.107718218620824e-13    4    4   11    6
 -1.829078466580846e-09    4    4   11    7
 0.07690151712767575    4    4   11    8
 -0.002336374545810885    4    4   11    9
 0.03235452565745628    4    4   11   10
 0.1654000691863362    4    4   11   11
 -0.1487982131363817    4    4   12    2
 -0.1100083598645684    4    4   12    3
 -0.09944459375740346    4    4   12    4
 -0.002309289078816122    4    4   12    5
 0.1704866691105286    4    4   12   12
 -0.1290185119235346    4    4   13    2
 -0.001602513409030829    4    4   13    3
 -0.01264341230773933    4    4   13    4
 -0.1279803921158774    4    4   13    5
 0.07499770677528239    4    4   13   12
 0.4576358105860675    4    4   13   13
 -0.06595798626966648    4    4   14    2
 -0.004213791493122898    4    4   14    3
 0.004804114665593045    4    4   14    4
 -0.06542610254273244    4    4   14    5
 0.03836031404483374    4    4   14   12
 -0.1106051218653005    4    4   14   13
 0.2085682127564471    4    4   14   14
 0.002205352818828558    4    4   15    2
 0.1041865962610265    4    4   15    3
 0.09418306464722272    4    4   15    4
 -0.1397805463305153    4    4   15    5
 -0.08333062567113345    4    4   15   12
 0.0732630891317681    4    4   15   13
 0.03747443682395032    4    4   15   14
 0.1627587967006535    4    4   15   15
 0.006762690609061777    4    4   16    1
 -0.09929917111884301    4    4   16    6
 0.1080347063801585    4    4   16    7
 0.09711658335730813    4    4   16    8
 -0.106770262495197    4    4   16    9
 -0.105194351880322    4    4   16   10
 0.09515811594481931    4    4   16   11
 0.2498412614581139    4    4   16   16
 -4.406678775460439e-05    5    1    2    1
 1.598496466371053e-09    5    1    3    1
 2.430882989951427e-09    5    1    4    1
 0.2442537204200645    5    1    5    1
 -3.525572613055907e-06    5    1    6    2
 -0.05521027892947313    5    1    6    3
 0.005122266284206933    5    1    6    4
 -9.837491018110656e-06    5    1    6    5
 5.978631847255661e-06    5    1    7    2
 0.005124648227915594    5    1    7    3
 0.05523288923933049    5    1    7    4
 1.595027513125232e-05    5    1    7    5
 -0.1055982825106063    5    1    8    2
 -2.347745820566286e-06    5    1    8    3
 -2.98373349393277e-06    5    1    8    4
 -0.07114446639310391    5    1    8    5
 -0.09872229320995868    5    1    9    2