 &FCI NORB=  64,NELEC=64,MS2=0,
  ORBSYM=1,1,1,1,1,1,1,1,1,1,1,1,1,1,1,1,1,1,1,1,1,1,1,1,1,1,1,1,1,1,1,1,1,1,1,1,1,1,1,1,1,1,1,1,1,1,1,1,1,1,1,1,1,1,1,1,1,1,1,1,1,1,1,1,
  ISYM=1,
 &END
 2    1    1    1    1
 2    2    2    2    2
 2    3    3    3    3
 2    4    4    4    4
 2    5    5    5    5
 2    6    6    6    6
 2    7    7    7    7
 2    8    8    8    8
 2    9    9    9    9
 2   10   10   10   10
 2   11   11   11   11
 2   12   12   12   12
 2   13   13   13   13
 2   14   14   14   14
 2   15   15   15   15
 2   16   16   16   16
 2   17   17   17   17
 2   18   18   18   18
 2   19   19   19   19
 2   20   20   20   20
 2   21   21   21   21
 2   22   22   22   22
 2   23   23   23   23
 2   24   24   24   24
 2   25   25   25   25
 2   26   26   26   26
 2   27   27   27   27
 2   28   28   28   28
 2   29   29   29   29
 2   30   30   30   30
 2   31   31   31   31
 2   32   32   32   32
 2   33   33   33   33
 2   34   34   34   34
 2   35   35   35   35
 2   36   36   36   36
 2   37   37   37   37
 2   38   38   38   38
 2   39   39   39   39
 2   40   40   40   40
 2   41   41   41   41
 2   42   42   42   42
 2   43   43   43   43
 2   44   44   44   44
 2   45   45   45   45
 2   46   46   46   46
 2   47   47   47   47
 2   48   48   48   48
 2   49   49   49   49
 2   50   50   50   50
 2   51   51   51   51
 2   52   52   52   52
 2   53   53   53   53
 2   54   54   54   54
 2   55   55   55   55
 2   56   56   56   56
 2   57   57   57   57
 2   58   58   58   58
 2   59   59   59   59
 2   60   60   60   60
 2   61   61   61   61
 2   62   62   62   62
 2   63   63   63   63
 2   64   64   64   64
 -1    2    1  0  0
 -1    3    2  0  0
 -1    4    3  0  0
 -1    5    4  0  0
 -1    6    5  0  0
 -1    7    6  0  0
 -1    8    1  0  0
 -1    8    7  0  0
 -1    9    1  0  0
 -1   10    2  0  0
 -1   10    9  0  0
 -1   11    3  0  0
 -1   11   10  0  0
 -1   12    4  0  0
 -1   12   11  0  0
 -1   13    5  0  0
 -1   13   12  0  0
 -1   14    6  0  0
 -1   14   13  0  0
 -1   15    7  0  0
 -1   15   14  0  0
 -1   16    8  0  0
 -1   16    9  0  0
 -1   16   15  0  0
 -1   17    9  0  0
 -1   18   10  0  0
 -1   18   17  0  0
 -1   19   11  0  0
 -1   19   18  0  0
 -1   20   12  0  0
 -1   20   19  0  0
 -1   21   13  0  0
 -1   21   20  0  0
 -1   22   14  0  0
 -1   22   21  0  0
 -1   23   15  0  0
 -1   23   22  0  0
 -1   24   16  0  0
 -1   24   17  0  0
 -1   24   23  0  0
 -1   25   17  0  0
 -1   26   18  0  0
 -1   26   25  0  0
 -1   27   19  0  0
 -1   27   26  0  0
 -1   28   20  0  0
 -1   28   27  0  0
 -1   29   21  0  0
 -1   29   28  0  0
 -1   30   22  0  0
 -1   30   29  0  0
 -1   31   23  0  0
 -1   31   30  0  0
 -1   32   24  0  0
 -1   32   25  0  0
 -1   32   31  0  0
 -1   33   25  0  0
 -1   34   26  0  0
 -1   34   33  0  0
 -1   35   27  0  0
 -1   35   34  0  0
 -1   36   28  0  0
 -1   36   35  0  0
 -1   37   29  0  0
 -1   37   36  0  0
 -1   38   30  0  0
 -1   38   37  0  0
 -1   39   31  0  0
 -1   39   38  0  0
 -1   40   32  0  0
 -1   40   33  0  0
 -1   40   39  0  0
 -1   41   33  0  0
 -1   42   34  0  0
 -1   42   41  0  0
 -1   43   35  0  0
 -1   43   42  0  0
 -1   44   36  0  0
 -1   44   43  0  0
 -1   45   37  0  0
 -1   45   44  0  0
 -1   46   38  0  0
 -1   46   45  0  0
 -1   47   39  0  0
 -1   47   46  0  0
 -1   48   40  0  0
 -1   48   41  0  0
 -1   48   47  0  0
 -1   49   41  0  0
 -1   50   42  0  0
 -1   50   49  0  0
 -1   51   43  0  0
 -1   51   50  0  0
 -1   52   44  0  0
 -1   52   51  0  0
 -1   53   45  0  0
 -1   53   52  0  0
 -1   54   46  0  0
 -1   54   53  0  0
 -1   55   47  0  0
 -1   55   54  0  0
 -1   56   48  0  0
 -1   56   49  0  0
 -1   56   55  0  0
 -1   57    1  0  0
 -1   57   49  0  0
 -1   58    2  0  0
 -1   58   50  0  0
 -1   58   57  0  0
 -1   59    3  0  0
 -1   59   51  0  0
 -1   59   58  0  0
 -1   60    4  0  0
 -1   60   52  0  0
 -1   60   59  0  0
 -1   61    5  0  0
 -1   61   53  0  0
 -1   61   60  0  0
 -1   62    6  0  0
 -1   62   54  0  0
 -1   62   61  0  0
 -1   63    7  0  0
 -1   63   55  0  0
 -1   63   62  0  0
 -1   64    8  0  0
 -1   64   56  0  0
 -1   64   57  0  0
 -1   64   63  0  0
 0  0  0  0  0
