 &FCI NORB=  16,NELEC=16,MS2=0,
  ORBSYM=1,1,1,1,1,1,1,1,1,1,1,1,1,1,1,1
  ISYM=1,
 &END
 0.1250000000070814    1    1    1    1
 0.1250006654727531    1    1    2    2
 0.1250006650927994    1    1    3    3
 2.513607343806496e-15    1    1    4    3
 0.124999334914279    1    1    4    4
 2.50746025746347e-15    1    1    5    2
 0.1249993345343313    1    1    5    5
 2.686592589929527e-10    1    1    6    1
 0.1250009408836992    1    1    6    6
 2.68675229732931e-10    1    1    7    1
 0.1250009408102132    1    1    7    7
 6.490725570852698e-07    1    1    8    1
 2.146436581517206e-15    1    1    8    6
 -1.47957503263338e-15    1    1    8    7
 0.1250000000370405    1    1    8    8
 -6.811002287983155e-07    1    1    9    1
 1.387088464073517e-15    1    1    9    6
 -2.247702333113855e-15    1    1    9    7
 5.305011174869291e-12    1    1    9    8
 0.1249999999629594    1    1    9    9
 -2.686720925558819e-10    1    1   10    1
 -2.186854946757383e-15    1    1   10    8
 -1.372252942170281e-15    1    1   10    9
 0.1249990591897858    1    1   10   10
 -2.686562040297002e-10    1    1   11    1
 1.451547245894042e-15    1    1   11    8
 2.08211007798647e-15    1    1   11    9
 0.1249990591163021    1    1   11   11
 3.673077536630713e-11    1    1   12    2
 1.899768716433053e-10    1    1   12    3
 6.65282777772783e-07    1    1   12    4
 -1.384726331313141e-11    1    1   12    5
 0.1250006654656716    1    1   12   12
 -1.899768772506713e-10    1    1   13    2
 -3.675463515547089e-11    1    1   13    3
 -1.383927437849048e-11    1    1   13    4
 -6.652827746950109e-07    1    1   13    5
 0.1250006650857179    1    1   13   13
 -6.652756962222874e-07    1    1   14    2
 -1.387040434109899e-11    1    1   14    3
 -3.675382108319653e-11    1    1   14    4
 -1.899737795734926e-10    1    1   14    5
 0.1249993349071974    1    1   14   14
 1.387836243301265e-11    1    1   15    2
 -6.652756931464281e-07    1    1   15    3
 -1.899737977739882e-10    1    1   15    4
 -3.673007235141992e-11    1    1   15    5
 0.1249993345272499    1    1   15   15
 -3.674220718682711e-11    1    1   16    1
 -2.68659272482023e-10    1    1   16    6
 2.686752025416132e-10    1    1   16    7
 -6.811002295740083e-07    1    1   16    8
 -6.490725562990088e-07    1    1   16    9
 2.686720502125982e-10    1    1   16   10
 -2.68656212995369e-10    1    1   16   11
 0.1249999999929183    1    1   16   16
 0.1250006654727531    2    1    2    1
 2.506383269061349e-15    2    1    5    1
 0.07545566842317206    2    1    6    2
 0.07544619581938269    2    1    6    3
 0.03126297195193951    2    1    6    4
 0.03125035302373263    2    1    6    5
 0.07545881638682676    2    1    7    2
 -0.0754430486798896    2    1    7    3
 -0.0312629739095397    2    1    7    4
 0.03125035247338934    2    1    7    5
 0.06096037269004993    2    1    8    2
 -1.827165870456193e-05    2    1    8    3
 0.06398631715797509    2    1    8    4
 -1.327322584989715e-06    2    1    8    5
 -0.06396838506184728    2    1    9    2
 -1.741246700852774e-05    2    1    9    3
 0.06097745919208809    2    1    9    4
 -1.264895440347241e-06    2    1    9    5
 -0.01295630886117171    2    1   10    2
 -0.01294422570564416    2    1   10    3
 0.03123702339697642    2    1   10    4
 0.03124965156382639    2    1   10    5
 -0.01295684521693401    2    1   11    2
 0.01294368826959956    2    1   11    3
 -0.03123703131846134    2    1   11    4
 0.03124964294525982    2    1   11    5
 3.673077980377631e-11    2    1   12    1
 0.07545550398684264    2    1   12    6
 -0.07545864863590716    2    1   12    7
 0.06396872623933135    2    1   12    8
 0.060960696185733    2    1   12    9
 -0.01295647304943896    2    1   12   10
 0.01295701374507247    2    1   12   11
 -1.899768781318754e-10    2    1   13    1
 -0.07544602755277663    2    1   13    6
 -0.0754428839794016    2    1   13    7
 1.740873087950443e-05    2    1   13    8
 -1.827522386932322e-05    2    1   13    9
 0.01294439424470115    2    1   13   10
 0.01294385242400676    2    1   13   11
 -6.652756962199998e-07    2    1   14    1
 -0.03126257101604522    2    1   14    6
 -0.03126257140356966    2    1   14    7
 -0.06097713647372263    2    1   14    8
 0.06398597542001799    2    1   14    9
 -0.03123709879483126    2    1   14   10
 -0.03123709332045267    2    1   14   11
 1.387836104135083e-11    2    1   15    1
 -0.03124995083039081    2    1   15    6
 0.03124995174266151    2    1   15    7
 1.271418595519354e-06    2    1   15    8
 -1.333954883574603e-06    2    1   15    9
 -0.03124971363670956    2    1   15   10
 0.03124971851908567    2    1   15   11
 -7.347352973151183e-11    2    1   16    2
 -1.899768742845685e-10    2    1   16    3
 -6.652792360393349e-07    2    1   16    4
 1.380838474580331e-11    2    1   16    5
 -0.124999999994689    2    1   16   12
 7.294679591409473e-09    2    1   16   13
 7.696858376909949e-11    2    1   16   14
 1.971557741181496e-10    2    1   16   15
 0.1250006654727531    2    2    1    1
 0.2812509982979897    2    2    2    2
 -3.895761199511303e-11    2    2    3    2
 0.09375033263657911    2    2    3    3
 -6.524550180861418e-07    2    2    4    2
 0.03125049914438306    2    2    4    3
 0.09374999998049388    2    2    4    4
 0.03125049894543992    2    2    5    2
 6.522300469510701e-07    2    2    5    3
 -1.296672297789066e-06    2    2    5    4
 0.0312500000304404    2    2    5    5
 0.07545566842317207    2    2    6    1
 0.2134318993110333    2    2    6    6
 0.07545881638682675    2    2    7    1
 -6.476988836036644e-10    2    2    7    6
 0.2134319043544163    2    2    7    7
 0.06096037269004993    2    2    8    1
 0.106643432911934    2    2    8    6
 -0.002568246191093514    2    2    8    7
 0.1249643394419828    2    2    8    8
 -0.06396838506184728    2    2    9    1
 -0.002567336322155491    2    2    9    6
 -0.1066478534281563    2    2    9    7
 6.638320104150797e-07    2    2    9    8
 0.1249642708435503    2    2    9    9
 -0.01295630886117171    2    2   10    1
 -1.784779262618078e-05    2    2   10    6
 -1.57405354218939e-12    2    2   10    7
 0.01828206647719311    2    2   10    8
 -0.00044026245476675    2    2   10    9
 0.03660379345589456    2    2   10   10
 -0.01295684521693401    2    2   11    1
 5.34164344879952e-14    2    2   11    6
 -1.784704787557745e-05    2    2   11    7
 -0.0004401429373847977    2    2   11    8
 -0.01828283222128492    2    2   11    9
 -1.115547518361282e-10    2    2   11   10
 0.03660379259312004    2    2   11   11
 -3.909327564760451e-06    2    2   12    2
 0.09375016661821277    2    2   12    3
 0.09375099789873761    2    2   12    4
 -1.947690481837909e-06    2    2   12    5
 0.2812499999902868    2    2   12   12
 -0.09375016623765327    2    2   13    2
 -3.90850265812881e-06    2    2   13    3
 -6.540924558533662e-07    2    2   13    4
 -0.03125033243685704    2    2   13    5
 -1.075464681654633e-08    2    2   13   12
 0.09374999961363244    2    2   13   13
 -0.09375000016857732    2    2   14    2
 -6.519830285333497e-07    2    2   14    3
 -2.844191916878249e-10    2    2   14    4
 -0.03124983367620544    2    2   14    5
 6.509677108509948e-07    2    2   14   12
 0.03124983367520178    2    2   14   13
 0.09374900205765772    2    2   14   14
 1.955645566692904e-06    2    2   15    2
 -0.03124999999168    2    2   15    3
 -0.03124983368079217    2    2   15    4
 -8.343814727021267e-10    2    2   15    5
 -0.03124983387057439    2    2   15   12
 6.507491386817916e-07    2    2   15   13
 -1.303240687028879e-06    2    2   15   14
 0.03124966739291914    2    2   15   15
 -7.347353413448435e-11    2    2   16    1
 -0.07545510677492571    2    2   16    6
 0.07545824251894633    2    2   16    7
 -0.06396838574094282    2    2   16    8
 -0.06096037158973222    2    2   16    9
 0.01295640476323456    2    2   16   10
 -0.01295694397607734    2    2   16   11
 0.1249993345272497    2    2   16   16
 0.1250006650927994    3    1    3    1
 2.513361014130346e-15    3    1    4    1
 0.07544619581938271    3    1    6    2
 -0.0754304292349942    3    1    6    3
 0.03125035421232752    3    1    6    4
 -0.03123773210531841    3    1    6    5
 -0.07544304867988962    3    1    7    2
 -0.07543357495860545    3    1    7    3
 0.03125035156255365    3    1    7    4
 0.03123773331219568    3    1    7    5
 -1.827165870455706e-05    3    1    8    2
 0.06099519686133055    3    1    8    3
 1.328077404697504e-06    3    1    8    4
 0.06398631609729186    3    1    8    5
 -1.741246700852723e-05    3    1    9    2
 -0.06400492912202169    3    1    9    3
 1.265633647366576e-06    3    1    9    4
 0.06097746109139931    3    1    9    5
 -0.01294422570564416    3    1   10    2
 0.01293106763796192    3    1   10    3
 0.03124965037524699    3    1   10    4
 -0.03126226341961277    3    1   10    5
 0.01294368826959956    3    1   11    2
 0.01293160622948443    3    1   11    3
 0.03124964385605549    3    1   11    4
 0.03126227059834804    3    1   11    5
 1.899768714795549e-10    3    1   12    1
 0.07544602787792262    3    1   12    6
 0.07544288430806731    3    1   12    7
 -1.741620110731093e-05    3    1   12    8
 1.826810890887745e-05    3    1   12    9
 -0.0129443941852812    3    1   12   10
 -0.01294385236694773    3    1   12   11
 -3.675463106115286e-11    3    1   13    1
 0.07543026434318723    3    1   13    6
 -0.07543340675322376    3    1   13    7
 -0.06400526922676382    3    1   13    8
 -0.06099552225811507    3    1   13    9
 -0.01293123174914536    3    1   13   10
 0.01293177467584295    3    1   13   11
 -1.387040769742211e-11    3    1   14    1
 -0.03124995188172794    3    1   14    6
 0.0312499506878754    3    1   14    7
 -1.271946753779679e-06    3    1   14    8
 1.334908498578254e-06    3    1   14    9
 -0.03124971258074659    3    1   14   10
 0.03124971956807919    3    1   14   11
 -6.652756931469416e-07    3    1   15    1
 0.03123733154215073    3    1   15    6
 0.03123733117871729    3    1   15    7
 -0.06097713476517258    3    1   15    8
 0.06398597668340962    3    1   15    9
 0.03126233920308696    3    1   15   10
 0.03126233298046678    3    1   15   11
 -1.899768767170168e-10    3    1   16    2
 -7.349730700578838e-11    3    1   16    3
 -1.380038282022939e-11    3    1   16    4
 -6.652792349685945e-07    3    1   16    5
 7.294679607809268e-09    3    1   16   12
 0.1249999999946881    3    1   16   13
 1.931809312424455e-10    3    1   16   14
 7.580195311586287e-11    3    1   16   15
 -3.895761097896762e-11    3    2    2    2
 0.09375033263657911    3    2    3    2
 -3.32975890064297e-10    3    2    3    3
 0.03125049914438306    3    2    4    2
 6.529739123564474e-07    3    2    4    3
 1.297044144619828e-06    3    2    4    4
 6.52230046951522e-07    3    2    5    2
 -0.03125049876123448    3    2    5    3
 0.0312499999766313    3    2    5    4
 -1.296672211080395e-06    3    2    5    5
 0.07544619581938269    3    2    6    1
 4.30874520093932e-05    3    2    6    6
 -0.0754430486798896    3    2    7    1
 2.434525230373435e-12    3    2    7    6
 -4.308821095723397e-05    3    2    7    7
 -1.827165870456103e-05    3    2    8    1
 0.1066657150196956    3    2    8    6
 0.002568577443095308    3    2    8    7
 -3.565255219206829e-05    3    2    8    8
 -1.741246700852757e-05    3    2    9    1
 -0.002567881534041831    3    2    9    6
 0.1066612549519614    3    2    9    7
 1.717905300999707e-06    3    2    9    8
 3.565405506254022e-05    3    2    9    9
 -0.01294422570564416    3    2   10    1
 -1.7848538309531e-05    3    2   10    6
 9.693137927779382e-13    3    2   10    7
 0.01830067095442387    3    2   10    8
 -0.0004407083346688624    3    2   10    9
 -7.392966431955133e-06    3    2   10   10
 0.01294368826959956    3    2   11    1
 -7.703897976840743e-13    3    2   11    6
 1.784630512296286e-05    3    2   11    7
 0.0004405522490039463    3    2   11    8
 0.01829991243192863    3    2   11    9
 7.897789000994948e-13    3    2   11   10
 7.392222509310784e-06    3    2   11   11
 0.09375016661821277    3    2   12    2
 3.908502380342381e-06    3    2   12    3
 6.467974089313796e-07    3    2   12    4
 0.03125033262958152    3    2   12    5
 -1.112968565434013e-08    3    2   12   12
 -3.908502658133606e-06    3    2   13    2
 0.09375016585127227    3    2   13    3
 -0.03125033263344613    3    2   13    4
 6.464257830654982e-07    3    2   13    5
 -0.09374999999617864    3    2   13   12
 1.075717669828932e-08    3    2   13   13
 -6.519830285338722e-07    3    2   14    2
 -0.03124999999035103    3    2   14    3
 -0.03124983367877852    3    2   14    4
 -8.346768574350448e-10    3    2   14    5
 -0.03124983386578382    3    2   14   12
 6.514938611234635e-07    3    2   14   13
 1.30361572820577e-06    3    2   14   14
 -0.03124999999168001    3    2   15    2
 6.516102277356149e-07    3    2   15    3
 -8.34387294681431e-10    3    2   15    4
 0.03124983368581355    3    2   15    5
 -6.507488490143713e-07    3    2   15   12
 -0.03124983347744595    3    2   15   13
 0.03124966733596398    3    2   15   14
 -1.303243219085335e-06    3    2   15   15
 -1.899768740508819e-10    3    2   16    1
 -0.07544562181317861    3    2   16    6
 -0.0754424869811928    3    2   16    7
 1.741227705282449e-05    3    2   16    8
 -1.827147024981507e-05    3    2   16    9
 0.01294432455194017    3    2   16   10
 0.0129437842766564    3    2   16   11
 0.1250006650927994    3    3    1    1
 0.09375033263657911    3    3    2    2
 -3.329758958341872e-10    3    3    3    2
 0.2812509975316311    3    3    3    3
 6.52973912356969e-07    3    3    4    2
 -0.03125049895507393    3    3    4    3
 0.03125000003046007    3    3    4    4
 -0.03125049876123448    3    3    5    2
 -6.524550000702055e-07    3    3    5    3
 1.297044211584836e-06    3    3    5    4
 0.09374999998693193    3    3    5    5
 -0.0754304292349942    3    3    6    1
 0.2133457299728503    3    3    6    6
 -0.07543357495860545    3    3    7    1
 6.476986014180431e-10    3    3    7    6
 0.2133457242191849    3    3    7    7
 0.06099519686133056    3    3    8    1
 -0.1066791164285603    3    3    8    6
 0.00256910526271033    3    3    8    7
 0.1250357247413082    3    3    8    8
 -0.06400492912202167    3    3    9    1
 0.002568195638306542    3    3    9    6
 0.1066835380137286    3    3    9    7
 6.651846145931102e-07    3    3    9    8
 0.1250356649727252    3    3    9    9
 0.01293106763796192    3    3   10    1
 1.784779790293787e-05    3    3   10    6
 3.297408150350582e-12    3    3   10    7
 -0.01831775159499791    3    3   10    8
 0.000441121543717261    3    3   10    9
 0.03661857755480835    3    3   10   10
 0.01293160622948443    3    3   11    1
 -1.969023623744081e-12    3    3   11    6
 1.784704833912646e-05    3    3   11    7
 0.0004410022669272087    3    3   11    8
 0.01831851627876491    3    3   11    9
 1.11555263574538e-10    3    3   11   10
 0.0366185785391266    3    3   11   11
 3.908502380340208e-06    3    3   12    2
 -0.09375016623580983    3    3   12    3
 0.03125033282586789    3    3   12    4
 -6.537202505986844e-07    3    3   12    5
 0.09375000037872736    3    3   12   12
 0.09375016585127227    3    3   13    2
 3.907095086129662e-06    3    3   13    3
 -1.946574409306686e-06    3    3   13    4
 -0.09375099790135744    3    3   13    5
 1.112656838746272e-08    3    3   13   12
 0.2812499999890269    3    3   13   13
 -0.03124999999035104    3    3   14    2
 -1.954528922633353e-06    3    3   14    3
 -8.34682809047638e-10    3    3   14    4
 0.03124983368268022    3    3   14    5
 -6.514935713734445e-07    3    3   14   12
 -0.03124983347948548    3    3   14   13
 0.03124966738774117    3    3   14   14
 6.516102277331913e-07    3    3   15    2
 -0.09374999978086181    3    3   15    3
 0.03124983368328893    3    3   15    4
 1.947988136459954e-09    3    3   15    5
 0.03124983367200599    3    3   15   12
 -6.509694588048892e-07    3    3   15   13
 1.303612612908988e-06    3    3   15   14
 0.09374900205890245    3    3   15   15
 -7.349732018584587e-11    3    3   16    1
 0.07542986739701787    3    3   16    6
 -0.07543300090266107    3    3   16    7
 -0.06400492872985702    3    3   16    8
 -0.06099519766056046    3    3   16    9
 -0.01293116373447704    3    3   16   10
 0.01293170517783609    3    3   16   11
 0.1249993349071974    3    3   16   16
 2.511626290654369e-15    4    1    3    1
 0.124999334914279    4    1    4    1
 0.03126297195193952    4    1    6    2
 0.03125035421232752    4    1    6    3
 0.01293203493533435    4    1    6    4
 0.01294411983405218    4    1    6    5
 -0.0312629739095397    4    1    7    2
 0.03125035156255365    4    1    7    3
 0.01293149940656265    4    1    7    4
 -0.01294465427624605    4    1    7    5
 0.06398631715797509    4    1    8    2
 1.32807740469474e-06    4    1    8    3
 -0.06099454873195216    4    1    8    4
 -1.827186112059419e-05    4    1    8    5
 0.06097745919208809    4    1    9    2
 1.265633647366372e-06    4    1    9    3
 0.0640042474877844    4    1    9    4
 -1.741264982677428e-05    4    1    9    5
 0.03123702339697643    4    1   10    2
 0.03124965037524699    4    1   10    3
 -0.07543266609069531    4    1   10    4
 -0.07544215723220971    4    1   10    5
 -0.03123703131846134    4    1   11    2
 0.0312496438560555    4    1   11    3
 -0.07542953785848572    4    1   11    4
 0.07544528628749748    4    1   11    5
 6.652827777694779e-07    4    1   12    1
 0.03126289848422954    4    1   12    6
 0.03126290921176628    4    1   12    7
 0.06097778554647677    4    1   12    8
 -0.0639866565203952    4    1   12    9
 0.03123742637677749    4    1   12   10
 0.03123743102457027    4    1   12   11
 -1.383927797050543e-11    4    1   13    1
 -0.03125028958488168    4    1   13    6
 0.03125027826966477    4    1   13    7
 -1.269095445024067e-06    4    1   13    8
 1.331916501659171e-06    4    1   13    9
 -0.03125005039053246    4    1   13   10
 0.03125004703822997    4    1   13   11
 -3.675382526457335e-11    4    1   14    1
 -0.01293187107661569    4    1   14    6
 0.01293133070370537    4    1   14    7
 0.06400390755492141    4    1   14    8
 0.06099422316145038    4    1   14    9
 0.0754328322386096    4    1   14   10
 -0.07542970480753523    4    1   14   11
 -1.899737964260935e-10    4    1   15    1
 -0.01294395114390175    4    1   15    6
 -0.01294449038244209    4    1   15    7
 1.740591118312687e-05    4    1   15    8
 -1.82782782241383e-05    4    1   15    9
 0.07544232366360729    4    1   15   10
 0.07544545216623293    4    1   15   11
 -6.652792360430845e-07    4    1   16    2
 -1.380038689632224e-11    4    1   16    3
 -7.349608820437992e-11    4    1   16    4
 -1.899737591999292e-10    4    1   16    5
 7.696892400703652e-11    4    1   16   12
 -1.931819436848966e-10    4    1   16   13
 0.1249999999946877    4    1   16   14
 -1.316744011213922e-08    4    1   16   15
 -6.524550180861418e-07    4    2    2    2
 0.03125049914438305    4    2    3    2
 6.529739123544586e-07    4    2    3    3
 0.09374999998049388    4    2    4    2
 1.297044144618264e-06    4    2    4    3
 -6.444033469408172e-07    4    2    4    4
 -1.296672297789776e-06    4    2    5    2
 0.03124999997663131    4    2    5    3
 -0.03124950122444615    4    2    5    4
 6.43884454166685e-07    4    2    5    5
 0.03126297195193951    4    2    6    1
 0.08840685677055923    4    2    6    6
 -0.0312629739095397    4    2    7    1
 7.170637119377502e-09    4    2    7    6
 -0.08840685677783745    4    2    7    7
 0.06398631715797509    4    2    8    1
 0.04416385379224615    4    2    8    6
 0.001063537596275287    4    2    8    7
 -3.498878465418417e-05    4    2    8    8
 0.06097745919208809    4    2    9    1
 -0.001063205350351948    4    2    9    6
 0.04416385004442962    4    2    9    7
 1.685885909952929e-06    4    2    9    8
 3.498879246647368e-05    4    2    9    9
 0.03123702339697642    4    2   10    1
 -1.784732539451547e-05    4    2   10    6
 5.780232401251737e-13    4    2   10    7
 -0.04419886511375831    4    2   10    8
 0.001064376862679394    4    2   10    9
 -0.08836983155571576    4    2   10   10
 -0.03123703131846134    4    2   11    1
 3.038591708564774e-13    4    2   11    6
 1.784733190554884e-05    4    2   11    7
 -0.001064044020220259    4    2   11    8
 -0.04419887738540165    4    2   11    9
 9.709344530134339e-09    4    2   11   10
 0.08836983155518087    4    2   11   11
 0.09375099789873761    4    2   12    2
 6.467974089317501e-07    4    2   12    3
 -4.831138323659675e-09    4    2   12    4
 0.03125016631681619    4    2   12    5
 -6.563211028036461e-07    4    2   12   12
 -6.540924558537432e-07    4    2   13    2
 -0.03125033263344613    4    2   13    3
 -0.03125016631999607    4    2   13    4
 -5.949950819218921e-09    4    2   13    5
 -0.03125016612053563    4    2   13   12
 6.565396715810901e-07    4    2   13   13
 -2.844191890738497e-10    4    2   14    2
 -0.03124983367877852    4    2   14    3
 0.09374900205819463    4    2   14    4
 -6.449452870256185e-07    4    2   14    5
 -0.09374999997225512    4    2   14   12
 1.305808458555011e-06    4    2   14   13
 -6.507682008778171e-07    4    2   14   14
 -0.03124983368079217    4    2   15    2
 -8.343872933439838e-10    4    2   15    3
 -6.581122933145085e-07    4    2   15    4
 0.03124966735704644    4    2   15    5
 1.308370091436092e-06    4    2   15   12
 0.03124999997547424    4    2   15   13
 -0.03124983347779244    4    2   15   14
 6.505496305340134e-07    4    2   15   15
 -6.652792360376732e-07    4    2   16    1
 -0.03126273390994653    4    2   16    6
 -0.03126274095576945    4    2   16    7
 -0.06097746089607444    4    2   16    8
 0.06398631589178554    4    2   16    9
 -0.03123726174426207    4    2   16   10
 -0.03123726281922884    4    2   16   11
 2.515963099344311e-15    4    3    1    1
 0.03125049914438305    4    3    2    2
 6.529739123561016e-07    4    3    3    2
 -0.03125049895507393    4    3    3    3
 1.297044144617241e-06    4    3    4    2
 0.03125000003046007    4    3    4    3
 -0.03124950103056256    4    3    4    4
 0.03124999997663131    4    3    5    2
 1.29704421158301e-06    4    3    5    3
 6.446282835561733e-07    4    3    5    4
 0.03124950084125538    4    3    5    5
 0.03125035421232752    4    3    6    1
 1.968098500938619e-05    4    3    6    6
 0.03125035156255365    4    3    7    1
 -2.681382375449448e-10    4    3    7    6
 1.601394335700637e-05    4    3    7    7
 1.328077404695475e-06    4    3    8    1
 0.04418170118664967    4    3    8    6
 -0.001063963695676247    4    3    8    7
 -3.569464661696842e-05    4    3    8    8
 1.26563364736737e-06    4    3    9    1
 -0.00106363129054838    4    3    9    6
 -0.04418168734265617    4    3    9    7
 3.757089958971833e-13    4    3    9    8
 -3.569467395081773e-05    4    3    9    9
 0.03124965037524699    4    3   10    1
 -1.784733023273609e-05    4    3   10    6
 -1.980980358003235e-12    4    3   10    7
 -0.044181027793046    4    3   10    8
 0.001063952034111917    4    3   10    9
 1.601370304123176e-05    4    3   10   10
 0.0312496438560555    4    3   11    1
 9.448260735134053e-13    4    3   11    6
 -1.784733004955396e-05    4    3   11    7
 0.001063619353105406    4    3   11    8
 0.04418102997108955    4    3   11    9
 2.695204422453384e-10    4    3   11   10
 1.968068915719398e-05    4    3   11   11
 6.467974089315013e-07    4    3   12    2
 0.0312503328258679    4    3   12    3
 0.0312501663193893    4    3   12    4
 5.950244527628234e-09    4    3   12    5
 0.03125016631111972    4    3   12   12
 -0.03125033263344613    4    3   13    2
 -1.946574409307923e-06    4    3   13    3
 -5.949956772076024e-09    4    3   13    4
 0.03125016632390176    4    3   13    5
 -6.565393819057066e-07    4    3   13   12
 -0.03125016650696297    4    3   13   13
 -0.03124983367877853    4    3   14    2
 -8.346828093728997e-10    4    3   14    3
 1.947999691456079e-06    4    3   14    4
 0.03124966735322829    4    3   14    5
 -1.298514072544874e-06    4    3   14   12
 0.03125000002712949    4    3   14   13
 -0.03124983347846253    4    3   14   14
 -8.343872942634961e-10    4    3   15    2
 0.03124983368328893    4    3   15    3
 0.03124966716038406    4    3   15    4
 6.453169251753045e-07    4    3   15    5
 -0.03124999997287824    4    3   15   12
 1.295574866707017e-06    4    3   15   13
 6.512937696289243e-07    4    3   15   14
 0.03124983367430383    4    3   15   15
 -1.380038306358107e-11    4    3   16    1
 -0.03125012152407586    4    3   16    6
 0.03125011382367427    4    3   16    7
 -1.265431279129622e-06    4    3   16    8
 1.328269589715754e-06    4    3   16    9
 -0.03124988214232347    4    3   16   10
 0.03124988250902642    4    3   16   11
 0.124999334914279    4    4    1    1
 0.09374999998049388    4    4    2    2
 1.297044144619716e-06    4    4    3    2
 0.03125000003046007    4    4    3    3
 -6.444033469371239e-07    4    4    4    2
 -0.03124950103056256    4    4    4    3
 0.2812490024577274    4    4    4    4
 -0.03124950122444614    4    4    5    2
 6.446282835565382e-07    4    4    5    3
 -3.894942276509628e-11    4    4    5    4
 0.09374966735988013    4    4    5    5
 0.01293203493533435    4    4    6    1
 0.0366195195150818    4    4    6    6
 0.01293149940656265    4    4    7    1
 -1.111284752704815e-10    4    4    7    6
 0.03661951865650932    4    4    7    7
 -0.06099454873195217    4    4    8    1
 0.01831898390078349    4    4    8    6
 -0.0004411311713954469    4    4    8    7
 0.1250356647173775    4    4    8    8
 0.0640042474877844    4    4    9    1
 -0.0004410117757615993    4    4    9    6
 -0.01831822409485444    4    4    9    7
 -6.651862523993589e-07    4    4    9    8
 0.1250357242098078    4    4    9    9
 -0.07543266609069529    4    4   10    1
 1.784685783933206e-05    4    4   10    6
 6.645739034977753e-13    4    4   10    7
 0.1066830538320968    4    4   10    8
 -0.002569103796365344    4    4   10    9
 0.2133447839396401    4    4   10   10
 -0.0754295378584857    4    4   11    1
 7.932735649263847e-14    4    4   11    6
 1.784761640110655e-05    4    4   11    7
 -0.002568194844003336    4    4   11    8
 -0.1066786600796988    4    4   11    9
 -6.501970659531069e-10    4    4   11   10
 0.2133447889615876    4    4   11   11
 -4.831138319822035e-09    4    4   12    2
 0.0312501663193893    4    4   12    3
 -0.09375000016785796    4    4   12    4
 6.499907191162221e-07    4    4   12    5
 0.09375099789747571    4    4   12   12
 -0.03125016631999607    4    4   13    2
 -5.949956772309934e-09    4    4   13    3
 1.950275670896944e-06    4    4   13    4
 0.03124999999257031    4    4   13    5
 -1.300706771786188e-06    4    4   13   12
 0.0312503326700596    4    4   13   13
 0.09374900205819464    4    4   14    2
 1.947999691454015e-06    4    4   14    3
 -3.887168417899143e-06    4    4   14    4
 -0.09374983398045704    4    4   14    5
 6.45890480221617e-07    4    4   14   12
 -0.03125016650615316    4    4   14   13
 0.2812499999897103    4    4   14   14
 -6.581122933136671e-07    4    4   15    2
 0.03124966716038406    4    4   15    3
 -0.09374983359592186    4    4   15    4
 3.887993250782925e-06    4    4   15    5
 0.03125016631367706    4    4   15   12
 6.461090470837038e-07    4    4   15   13
 -1.993853478012371e-08    4    4   15   14
 0.09374999961419403    4    4   15   15
 -7.349609093133568e-11    4    4   16    1
 -0.01293193845632563    4    4   16    6
 0.01293140083852872    4    4   16    7
 0.06400424815596371    4    4   16    8
 0.06099454763884551    4    4   16    9
 0.07543322573881188    4    4   16   10
 -0.07543011410281431    4    4   16   11
 0.1250006650857181    4    4   16   16
 2.507250630799337e-15    5    1    2    1
 0.1249993345343313    5    1    5    1
 0.03125035302373264    5    1    6    2
 -0.03123773210531841    5    1    6    3
 0.01294411983405218    5    1    6    4
 -0.01295727358619671    5    1    6    5
 0.03125035247338936    5    1    7    2
 0.03123773331219569    5    1    7    3
 -0.01294465427624605    5    1    7    4
 -0.01295674029743667    5    1    7    5
 -1.327322584990177e-06    5    1    8    2
 0.06398631609729186    5    1    8    3
 -1.827186112059802e-05    5    1    8    4
 -0.06095972267431369    5    1    8    5
 -1.264895440348213e-06    5    1    9    2
 0.06097746109139931    5    1    9    3
 -1.741264982677448e-05    5    1    9    4
 0.06396770449562725    5    1    9    5
 0.03124965156382639    5    1   10    2
 -0.03126226341961278    5    1   10    3
 -0.07544215723220969    5    1   10    4
 0.07545790677655784    5    1   10    5
 0.03124964294525982    5    1   11    2
 0.03126227059834804    5    1   11    3
 0.07544528628749748    5    1   11    4
 0.07545477630861987    5    1   11    5
 -1.384725976307644e-11    5    1   12    1
 0.03125028853011456    5    1   12    6
 -0.03125027931749367    5    1   12    7
 -1.268567250393273e-06    5    1   12    8
 1.330962836242126e-06    5    1   12    9
 0.03125005144070482    5    1   12   10
 -0.03125004598464001    5    1   12   11
 -6.652827746996809e-07    5    1   13    1
 0.03123765901851472    5    1   13    6
 0.03123766899342747    5    1   13    7
 -0.06097778383786382    5    1   13    8
 0.06398665778384288    5    1   13    9
 0.03126266677687359    5    1   13   10
 0.0312626706780585    5    1   13   11
 -1.89973785380418e-10    5    1   14    1